V -t * -v 1.0a5 -a 0
A -t * -n 1 -p 0 -o 0x7fffffff -c 30 -a 1
A -t * -h 1 -m 1073741823 -s 0
n -t * -a 0 -s 0 -S UP -v circle -c black -i black
n -t * -a 1 -s 1 -S UP -v circle -c black -i black
n -t * -a 2 -s 2 -S UP -v circle -c black -i black
l -t * -s 0 -d 1 -S UP -r 1000000 -D 0.02 -c black
l -t * -s 1 -d 2 -S UP -r 500000 -D 0.02 -c black
+ -t 0.5 -s 0 -d 1 -p cbr -e 512 -c 0 -i 0 -a 0 -x {0.0 2.0 0 ------- null}
- -t 0.5 -s 0 -d 1 -p cbr -e 512 -c 0 -i 0 -a 0 -x {0.0 2.0 0 ------- null}
h -t 0.5 -s 0 -d 1 -p cbr -e 512 -c 0 -i 0 -a 0 -x {0.0 2.0 -1 ------- null}
+ -t 0.505 -s 0 -d 1 -p cbr -e 512 -c 0 -i 1 -a 0 -x {0.0 2.0 1 ------- null}
- -t 0.505 -s 0 -d 1 -p cbr -e 512 -c 0 -i 1 -a 0 -x {0.0 2.0 1 ------- null}
h -t 0.505 -s 0 -d 1 -p cbr -e 512 -c 0 -i 1 -a 0 -x {0.0 2.0 -1 ------- null}
+ -t 0.51 -s 0 -d 1 -p cbr -e 512 -c 0 -i 2 -a 0 -x {0.0 2.0 2 ------- null}
- -t 0.51 -s 0 -d 1 -p cbr -e 512 -c 0 -i 2 -a 0 -x {0.0 2.0 2 ------- null}
h -t 0.51 -s 0 -d 1 -p cbr -e 512 -c 0 -i 2 -a 0 -x {0.0 2.0 -1 ------- null}
+ -t 0.515 -s 0 -d 1 -p cbr -e 512 -c 0 -i 3 -a 0 -x {0.0 2.0 3 ------- null}
- -t 0.515 -s 0 -d 1 -p cbr -e 512 -c 0 -i 3 -a 0 -x {0.0 2.0 3 ------- null}
h -t 0.515 -s 0 -d 1 -p cbr -e 512 -c 0 -i 3 -a 0 -x {0.0 2.0 -1 ------- null}
+ -t 0.52 -s 0 -d 1 -p cbr -e 512 -c 0 -i 4 -a 0 -x {0.0 2.0 4 ------- null}
- -t 0.52 -s 0 -d 1 -p cbr -e 512 -c 0 -i 4 -a 0 -x {0.0 2.0 4 ------- null}
h -t 0.52 -s 0 -d 1 -p cbr -e 512 -c 0 -i 4 -a 0 -x {0.0 2.0 -1 ------- null}
r -t 0.524096 -s 0 -d 1 -p cbr -e 512 -c 0 -i 0 -a 0 -x {0.0 2.0 0 ------- null}
+ -t 0.524096 -s 1 -d 2 -p cbr -e 512 -c 0 -i 0 -a 0 -x {0.0 2.0 0 ------- null}
- -t 0.524096 -s 1 -d 2 -p cbr -e 512 -c 0 -i 0 -a 0 -x {0.0 2.0 0 ------- null}
h -t 0.524096 -s 1 -d 2 -p cbr -e 512 -c 0 -i 0 -a 0 -x {0.0 2.0 -1 ------- null}
+ -t 0.525 -s 0 -d 1 -p cbr -e 512 -c 0 -i 5 -a 0 -x {0.0 2.0 5 ------- null}
- -t 0.525 -s 0 -d 1 -p cbr -e 512 -c 0 -i 5 -a 0 -x {0.0 2.0 5 ------- null}
h -t 0.525 -s 0 -d 1 -p cbr -e 512 -c 0 -i 5 -a 0 -x {0.0 2.0 -1 ------- null}
r -t 0.529096 -s 0 -d 1 -p cbr -e 512 -c 0 -i 1 -a 0 -x {0.0 2.0 1 ------- null}
+ -t 0.529096 -s 1 -d 2 -p cbr -e 512 -c 0 -i 1 -a 0 -x {0.0 2.0 1 ------- null}
+ -t 0.53 -s 0 -d 1 -p cbr -e 512 -c 0 -i 6 -a 0 -x {0.0 2.0 6 ------- null}
- -t 0.53 -s 0 -d 1 -p cbr -e 512 -c 0 -i 6 -a 0 -x {0.0 2.0 6 ------- null}
h -t 0.53 -s 0 -d 1 -p cbr -e 512 -c 0 -i 6 -a 0 -x {0.0 2.0 -1 ------- null}
- -t 0.532288 -s 1 -d 2 -p cbr -e 512 -c 0 -i 1 -a 0 -x {0.0 2.0 1 ------- null}
h -t 0.532288 -s 1 -d 2 -p cbr -e 512 -c 0 -i 1 -a 0 -x {0.0 2.0 -1 ------- null}
r -t 0.534096 -s 0 -d 1 -p cbr -e 512 -c 0 -i 2 -a 0 -x {0.0 2.0 2 ------- null}
+ -t 0.534096 -s 1 -d 2 -p cbr -e 512 -c 0 -i 2 -a 0 -x {0.0 2.0 2 ------- null}
+ -t 0.535 -s 0 -d 1 -p cbr -e 512 -c 0 -i 7 -a 0 -x {0.0 2.0 7 ------- null}
- -t 0.535 -s 0 -d 1 -p cbr -e 512 -c 0 -i 7 -a 0 -x {0.0 2.0 7 ------- null}
h -t 0.535 -s 0 -d 1 -p cbr -e 512 -c 0 -i 7 -a 0 -x {0.0 2.0 -1 ------- null}
r -t 0.539096 -s 0 -d 1 -p cbr -e 512 -c 0 -i 3 -a 0 -x {0.0 2.0 3 ------- null}
+ -t 0.539096 -s 1 -d 2 -p cbr -e 512 -c 0 -i 3 -a 0 -x {0.0 2.0 3 ------- null}
+ -t 0.54 -s 0 -d 1 -p cbr -e 512 -c 0 -i 8 -a 0 -x {0.0 2.0 8 ------- null}
- -t 0.54 -s 0 -d 1 -p cbr -e 512 -c 0 -i 8 -a 0 -x {0.0 2.0 8 ------- null}
h -t 0.54 -s 0 -d 1 -p cbr -e 512 -c 0 -i 8 -a 0 -x {0.0 2.0 -1 ------- null}
- -t 0.54048 -s 1 -d 2 -p cbr -e 512 -c 0 -i 2 -a 0 -x {0.0 2.0 2 ------- null}
h -t 0.54048 -s 1 -d 2 -p cbr -e 512 -c 0 -i 2 -a 0 -x {0.0 2.0 -1 ------- null}
r -t 0.544096 -s 0 -d 1 -p cbr -e 512 -c 0 -i 4 -a 0 -x {0.0 2.0 4 ------- null}
+ -t 0.544096 -s 1 -d 2 -p cbr -e 512 -c 0 -i 4 -a 0 -x {0.0 2.0 4 ------- null}
+ -t 0.545 -s 0 -d 1 -p cbr -e 512 -c 0 -i 9 -a 0 -x {0.0 2.0 9 ------- null}
- -t 0.545 -s 0 -d 1 -p cbr -e 512 -c 0 -i 9 -a 0 -x {0.0 2.0 9 ------- null}
h -t 0.545 -s 0 -d 1 -p cbr -e 512 -c 0 -i 9 -a 0 -x {0.0 2.0 -1 ------- null}
- -t 0.548672 -s 1 -d 2 -p cbr -e 512 -c 0 -i 3 -a 0 -x {0.0 2.0 3 ------- null}
h -t 0.548672 -s 1 -d 2 -p cbr -e 512 -c 0 -i 3 -a 0 -x {0.0 2.0 -1 ------- null}
r -t 0.549096 -s 0 -d 1 -p cbr -e 512 -c 0 -i 5 -a 0 -x {0.0 2.0 5 ------- null}
+ -t 0.549096 -s 1 -d 2 -p cbr -e 512 -c 0 -i 5 -a 0 -x {0.0 2.0 5 ------- null}
+ -t 0.55 -s 0 -d 1 -p cbr -e 512 -c 0 -i 10 -a 0 -x {0.0 2.0 10 ------- null}
- -t 0.55 -s 0 -d 1 -p cbr -e 512 -c 0 -i 10 -a 0 -x {0.0 2.0 10 ------- null}
h -t 0.55 -s 0 -d 1 -p cbr -e 512 -c 0 -i 10 -a 0 -x {0.0 2.0 -1 ------- null}
r -t 0.552288 -s 1 -d 2 -p cbr -e 512 -c 0 -i 0 -a 0 -x {0.0 2.0 0 ------- null}
r -t 0.554096 -s 0 -d 1 -p cbr -e 512 -c 0 -i 6 -a 0 -x {0.0 2.0 6 ------- null}
+ -t 0.554096 -s 1 -d 2 -p cbr -e 512 -c 0 -i 6 -a 0 -x {0.0 2.0 6 ------- null}
+ -t 0.555 -s 0 -d 1 -p cbr -e 512 -c 0 -i 11 -a 0 -x {0.0 2.0 11 ------- null}
- -t 0.555 -s 0 -d 1 -p cbr -e 512 -c 0 -i 11 -a 0 -x {0.0 2.0 11 ------- null}
h -t 0.555 -s 0 -d 1 -p cbr -e 512 -c 0 -i 11 -a 0 -x {0.0 2.0 -1 ------- null}
- -t 0.556864 -s 1 -d 2 -p cbr -e 512 -c 0 -i 4 -a 0 -x {0.0 2.0 4 ------- null}
h -t 0.556864 -s 1 -d 2 -p cbr -e 512 -c 0 -i 4 -a 0 -x {0.0 2.0 -1 ------- null}
r -t 0.559096 -s 0 -d 1 -p cbr -e 512 -c 0 -i 7 -a 0 -x {0.0 2.0 7 ------- null}
+ -t 0.559096 -s 1 -d 2 -p cbr -e 512 -c 0 -i 7 -a 0 -x {0.0 2.0 7 ------- null}
+ -t 0.56 -s 0 -d 1 -p cbr -e 512 -c 0 -i 12 -a 0 -x {0.0 2.0 12 ------- null}
- -t 0.56 -s 0 -d 1 -p cbr -e 512 -c 0 -i 12 -a 0 -x {0.0 2.0 12 ------- null}
h -t 0.56 -s 0 -d 1 -p cbr -e 512 -c 0 -i 12 -a 0 -x {0.0 2.0 -1 ------- null}
r -t 0.56048 -s 1 -d 2 -p cbr -e 512 -c 0 -i 1 -a 0 -x {0.0 2.0 1 ------- null}
r -t 0.564096 -s 0 -d 1 -p cbr -e 512 -c 0 -i 8 -a 0 -x {0.0 2.0 8 ------- null}
+ -t 0.564096 -s 1 -d 2 -p cbr -e 512 -c 0 -i 8 -a 0 -x {0.0 2.0 8 ------- null}
+ -t 0.565 -s 0 -d 1 -p cbr -e 512 -c 0 -i 13 -a 0 -x {0.0 2.0 13 ------- null}
- -t 0.565 -s 0 -d 1 -p cbr -e 512 -c 0 -i 13 -a 0 -x {0.0 2.0 13 ------- null}
h -t 0.565 -s 0 -d 1 -p cbr -e 512 -c 0 -i 13 -a 0 -x {0.0 2.0 -1 ------- null}
- -t 0.565056 -s 1 -d 2 -p cbr -e 512 -c 0 -i 5 -a 0 -x {0.0 2.0 5 ------- null}
h -t 0.565056 -s 1 -d 2 -p cbr -e 512 -c 0 -i 5 -a 0 -x {0.0 2.0 -1 ------- null}
r -t 0.568672 -s 1 -d 2 -p cbr -e 512 -c 0 -i 2 -a 0 -x {0.0 2.0 2 ------- null}
r -t 0.569096 -s 0 -d 1 -p cbr -e 512 -c 0 -i 9 -a 0 -x {0.0 2.0 9 ------- null}
+ -t 0.569096 -s 1 -d 2 -p cbr -e 512 -c 0 -i 9 -a 0 -x {0.0 2.0 9 ------- null}
+ -t 0.57 -s 0 -d 1 -p cbr -e 512 -c 0 -i 14 -a 0 -x {0.0 2.0 14 ------- null}
- -t 0.57 -s 0 -d 1 -p cbr -e 512 -c 0 -i 14 -a 0 -x {0.0 2.0 14 ------- null}
h -t 0.57 -s 0 -d 1 -p cbr -e 512 -c 0 -i 14 -a 0 -x {0.0 2.0 -1 ------- null}
- -t 0.573248 -s 1 -d 2 -p cbr -e 512 -c 0 -i 6 -a 0 -x {0.0 2.0 6 ------- null}
h -t 0.573248 -s 1 -d 2 -p cbr -e 512 -c 0 -i 6 -a 0 -x {0.0 2.0 -1 ------- null}
r -t 0.574096 -s 0 -d 1 -p cbr -e 512 -c 0 -i 10 -a 0 -x {0.0 2.0 10 ------- null}
+ -t 0.574096 -s 1 -d 2 -p cbr -e 512 -c 0 -i 10 -a 0 -x {0.0 2.0 10 ------- null}
+ -t 0.575 -s 0 -d 1 -p cbr -e 512 -c 0 -i 15 -a 0 -x {0.0 2.0 15 ------- null}
- -t 0.575 -s 0 -d 1 -p cbr -e 512 -c 0 -i 15 -a 0 -x {0.0 2.0 15 ------- null}
h -t 0.575 -s 0 -d 1 -p cbr -e 512 -c 0 -i 15 -a 0 -x {0.0 2.0 -1 ------- null}
r -t 0.576864 -s 1 -d 2 -p cbr -e 512 -c 0 -i 3 -a 0 -x {0.0 2.0 3 ------- null}
r -t 0.579096 -s 0 -d 1 -p cbr -e 512 -c 0 -i 11 -a 0 -x {0.0 2.0 11 ------- null}
+ -t 0.579096 -s 1 -d 2 -p cbr -e 512 -c 0 -i 11 -a 0 -x {0.0 2.0 11 ------- null}
+ -t 0.58 -s 0 -d 1 -p cbr -e 512 -c 0 -i 16 -a 0 -x {0.0 2.0 16 ------- null}
- -t 0.58 -s 0 -d 1 -p cbr -e 512 -c 0 -i 16 -a 0 -x {0.0 2.0 16 ------- null}
h -t 0.58 -s 0 -d 1 -p cbr -e 512 -c 0 -i 16 -a 0 -x {0.0 2.0 -1 ------- null}
- -t 0.58144 -s 1 -d 2 -p cbr -e 512 -c 0 -i 7 -a 0 -x {0.0 2.0 7 ------- null}
h -t 0.58144 -s 1 -d 2 -p cbr -e 512 -c 0 -i 7 -a 0 -x {0.0 2.0 -1 ------- null}
r -t 0.584096 -s 0 -d 1 -p cbr -e 512 -c 0 -i 12 -a 0 -x {0.0 2.0 12 ------- null}
+ -t 0.584096 -s 1 -d 2 -p cbr -e 512 -c 0 -i 12 -a 0 -x {0.0 2.0 12 ------- null}
+ -t 0.585 -s 0 -d 1 -p cbr -e 512 -c 0 -i 17 -a 0 -x {0.0 2.0 17 ------- null}
- -t 0.585 -s 0 -d 1 -p cbr -e 512 -c 0 -i 17 -a 0 -x {0.0 2.0 17 ------- null}
h -t 0.585 -s 0 -d 1 -p cbr -e 512 -c 0 -i 17 -a 0 -x {0.0 2.0 -1 ------- null}
r -t 0.585056 -s 1 -d 2 -p cbr -e 512 -c 0 -i 4 -a 0 -x {0.0 2.0 4 ------- null}
r -t 0.589096 -s 0 -d 1 -p cbr -e 512 -c 0 -i 13 -a 0 -x {0.0 2.0 13 ------- null}
+ -t 0.589096 -s 1 -d 2 -p cbr -e 512 -c 0 -i 13 -a 0 -x {0.0 2.0 13 ------- null}
- -t 0.589632 -s 1 -d 2 -p cbr -e 512 -c 0 -i 8 -a 0 -x {0.0 2.0 8 ------- null}
h -t 0.589632 -s 1 -d 2 -p cbr -e 512 -c 0 -i 8 -a 0 -x {0.0 2.0 -1 ------- null}
+ -t 0.59 -s 0 -d 1 -p cbr -e 512 -c 0 -i 18 -a 0 -x {0.0 2.0 18 ------- null}
- -t 0.59 -s 0 -d 1 -p cbr -e 512 -c 0 -i 18 -a 0 -x {0.0 2.0 18 ------- null}
h -t 0.59 -s 0 -d 1 -p cbr -e 512 -c 0 -i 18 -a 0 -x {0.0 2.0 -1 ------- null}
r -t 0.593248 -s 1 -d 2 -p cbr -e 512 -c 0 -i 5 -a 0 -x {0.0 2.0 5 ------- null}
r -t 0.594096 -s 0 -d 1 -p cbr -e 512 -c 0 -i 14 -a 0 -x {0.0 2.0 14 ------- null}
+ -t 0.594096 -s 1 -d 2 -p cbr -e 512 -c 0 -i 14 -a 0 -x {0.0 2.0 14 ------- null}
+ -t 0.595 -s 0 -d 1 -p cbr -e 512 -c 0 -i 19 -a 0 -x {0.0 2.0 19 ------- null}
- -t 0.595 -s 0 -d 1 -p cbr -e 512 -c 0 -i 19 -a 0 -x {0.0 2.0 19 ------- null}
h -t 0.595 -s 0 -d 1 -p cbr -e 512 -c 0 -i 19 -a 0 -x {0.0 2.0 -1 ------- null}
- -t 0.597824 -s 1 -d 2 -p cbr -e 512 -c 0 -i 9 -a 0 -x {0.0 2.0 9 ------- null}
h -t 0.597824 -s 1 -d 2 -p cbr -e 512 -c 0 -i 9 -a 0 -x {0.0 2.0 -1 ------- null}
r -t 0.599096 -s 0 -d 1 -p cbr -e 512 -c 0 -i 15 -a 0 -x {0.0 2.0 15 ------- null}
+ -t 0.599096 -s 1 -d 2 -p cbr -e 512 -c 0 -i 15 -a 0 -x {0.0 2.0 15 ------- null}
+ -t 0.6 -s 0 -d 1 -p cbr -e 512 -c 0 -i 20 -a 0 -x {0.0 2.0 20 ------- null}
- -t 0.6 -s 0 -d 1 -p cbr -e 512 -c 0 -i 20 -a 0 -x {0.0 2.0 20 ------- null}
h -t 0.6 -s 0 -d 1 -p cbr -e 512 -c 0 -i 20 -a 0 -x {0.0 2.0 -1 ------- null}
r -t 0.60144 -s 1 -d 2 -p cbr -e 512 -c 0 -i 6 -a 0 -x {0.0 2.0 6 ------- null}
r -t 0.604096 -s 0 -d 1 -p cbr -e 512 -c 0 -i 16 -a 0 -x {0.0 2.0 16 ------- null}
+ -t 0.604096 -s 1 -d 2 -p cbr -e 512 -c 0 -i 16 -a 0 -x {0.0 2.0 16 ------- null}
+ -t 0.605 -s 0 -d 1 -p cbr -e 512 -c 0 -i 21 -a 0 -x {0.0 2.0 21 ------- null}
- -t 0.605 -s 0 -d 1 -p cbr -e 512 -c 0 -i 21 -a 0 -x {0.0 2.0 21 ------- null}
h -t 0.605 -s 0 -d 1 -p cbr -e 512 -c 0 -i 21 -a 0 -x {0.0 2.0 -1 ------- null}
- -t 0.606016 -s 1 -d 2 -p cbr -e 512 -c 0 -i 10 -a 0 -x {0.0 2.0 10 ------- null}
h -t 0.606016 -s 1 -d 2 -p cbr -e 512 -c 0 -i 10 -a 0 -x {0.0 2.0 -1 ------- null}
r -t 0.609096 -s 0 -d 1 -p cbr -e 512 -c 0 -i 17 -a 0 -x {0.0 2.0 17 ------- null}
+ -t 0.609096 -s 1 -d 2 -p cbr -e 512 -c 0 -i 17 -a 0 -x {0.0 2.0 17 ------- null}
r -t 0.609632 -s 1 -d 2 -p cbr -e 512 -c 0 -i 7 -a 0 -x {0.0 2.0 7 ------- null}
+ -t 0.61 -s 0 -d 1 -p cbr -e 512 -c 0 -i 22 -a 0 -x {0.0 2.0 22 ------- null}
- -t 0.61 -s 0 -d 1 -p cbr -e 512 -c 0 -i 22 -a 0 -x {0.0 2.0 22 ------- null}
h -t 0.61 -s 0 -d 1 -p cbr -e 512 -c 0 -i 22 -a 0 -x {0.0 2.0 -1 ------- null}
r -t 0.614096 -s 0 -d 1 -p cbr -e 512 -c 0 -i 18 -a 0 -x {0.0 2.0 18 ------- null}
+ -t 0.614096 -s 1 -d 2 -p cbr -e 512 -c 0 -i 18 -a 0 -x {0.0 2.0 18 ------- null}
- -t 0.614208 -s 1 -d 2 -p cbr -e 512 -c 0 -i 11 -a 0 -x {0.0 2.0 11 ------- null}
h -t 0.614208 -s 1 -d 2 -p cbr -e 512 -c 0 -i 11 -a 0 -x {0.0 2.0 -1 ------- null}
+ -t 0.615 -s 0 -d 1 -p cbr -e 512 -c 0 -i 23 -a 0 -x {0.0 2.0 23 ------- null}
- -t 0.615 -s 0 -d 1 -p cbr -e 512 -c 0 -i 23 -a 0 -x {0.0 2.0 23 ------- null}
h -t 0.615 -s 0 -d 1 -p cbr -e 512 -c 0 -i 23 -a 0 -x {0.0 2.0 -1 ------- null}
r -t 0.617824 -s 1 -d 2 -p cbr -e 512 -c 0 -i 8 -a 0 -x {0.0 2.0 8 ------- null}
r -t 0.619096 -s 0 -d 1 -p cbr -e 512 -c 0 -i 19 -a 0 -x {0.0 2.0 19 ------- null}
+ -t 0.619096 -s 1 -d 2 -p cbr -e 512 -c 0 -i 19 -a 0 -x {0.0 2.0 19 ------- null}
+ -t 0.62 -s 0 -d 1 -p cbr -e 512 -c 0 -i 24 -a 0 -x {0.0 2.0 24 ------- null}
- -t 0.62 -s 0 -d 1 -p cbr -e 512 -c 0 -i 24 -a 0 -x {0.0 2.0 24 ------- null}
h -t 0.62 -s 0 -d 1 -p cbr -e 512 -c 0 -i 24 -a 0 -x {0.0 2.0 -1 ------- null}
- -t 0.6224 -s 1 -d 2 -p cbr -e 512 -c 0 -i 12 -a 0 -x {0.0 2.0 12 ------- null}
h -t 0.6224 -s 1 -d 2 -p cbr -e 512 -c 0 -i 12 -a 0 -x {0.0 2.0 -1 ------- null}
r -t 0.624096 -s 0 -d 1 -p cbr -e 512 -c 0 -i 20 -a 0 -x {0.0 2.0 20 ------- null}
+ -t 0.624096 -s 1 -d 2 -p cbr -e 512 -c 0 -i 20 -a 0 -x {0.0 2.0 20 ------- null}
+ -t 0.625 -s 0 -d 1 -p cbr -e 512 -c 0 -i 25 -a 0 -x {0.0 2.0 25 ------- null}
- -t 0.625 -s 0 -d 1 -p cbr -e 512 -c 0 -i 25 -a 0 -x {0.0 2.0 25 ------- null}
h -t 0.625 -s 0 -d 1 -p cbr -e 512 -c 0 -i 25 -a 0 -x {0.0 2.0 -1 ------- null}
r -t 0.626016 -s 1 -d 2 -p cbr -e 512 -c 0 -i 9 -a 0 -x {0.0 2.0 9 ------- null}
r -t 0.629096 -s 0 -d 1 -p cbr -e 512 -c 0 -i 21 -a 0 -x {0.0 2.0 21 ------- null}
+ -t 0.629096 -s 1 -d 2 -p cbr -e 512 -c 0 -i 21 -a 0 -x {0.0 2.0 21 ------- null}
+ -t 0.63 -s 0 -d 1 -p cbr -e 512 -c 0 -i 26 -a 0 -x {0.0 2.0 26 ------- null}
- -t 0.63 -s 0 -d 1 -p cbr -e 512 -c 0 -i 26 -a 0 -x {0.0 2.0 26 ------- null}
h -t 0.63 -s 0 -d 1 -p cbr -e 512 -c 0 -i 26 -a 0 -x {0.0 2.0 -1 ------- null}
- -t 0.630592 -s 1 -d 2 -p cbr -e 512 -c 0 -i 13 -a 0 -x {0.0 2.0 13 ------- null}
h -t 0.630592 -s 1 -d 2 -p cbr -e 512 -c 0 -i 13 -a 0 -x {0.0 2.0 -1 ------- null}
r -t 0.634096 -s 0 -d 1 -p cbr -e 512 -c 0 -i 22 -a 0 -x {0.0 2.0 22 ------- null}
+ -t 0.634096 -s 1 -d 2 -p cbr -e 512 -c 0 -i 22 -a 0 -x {0.0 2.0 22 ------- null}
r -t 0.634208 -s 1 -d 2 -p cbr -e 512 -c 0 -i 10 -a 0 -x {0.0 2.0 10 ------- null}
+ -t 0.635 -s 0 -d 1 -p cbr -e 512 -c 0 -i 27 -a 0 -x {0.0 2.0 27 ------- null}
- -t 0.635 -s 0 -d 1 -p cbr -e 512 -c 0 -i 27 -a 0 -x {0.0 2.0 27 ------- null}
h -t 0.635 -s 0 -d 1 -p cbr -e 512 -c 0 -i 27 -a 0 -x {0.0 2.0 -1 ------- null}
- -t 0.638784 -s 1 -d 2 -p cbr -e 512 -c 0 -i 14 -a 0 -x {0.0 2.0 14 ------- null}
h -t 0.638784 -s 1 -d 2 -p cbr -e 512 -c 0 -i 14 -a 0 -x {0.0 2.0 -1 ------- null}
r -t 0.639096 -s 0 -d 1 -p cbr -e 512 -c 0 -i 23 -a 0 -x {0.0 2.0 23 ------- null}
+ -t 0.639096 -s 1 -d 2 -p cbr -e 512 -c 0 -i 23 -a 0 -x {0.0 2.0 23 ------- null}
+ -t 0.64 -s 0 -d 1 -p cbr -e 512 -c 0 -i 28 -a 0 -x {0.0 2.0 28 ------- null}
- -t 0.64 -s 0 -d 1 -p cbr -e 512 -c 0 -i 28 -a 0 -x {0.0 2.0 28 ------- null}
h -t 0.64 -s 0 -d 1 -p cbr -e 512 -c 0 -i 28 -a 0 -x {0.0 2.0 -1 ------- null}
r -t 0.6424 -s 1 -d 2 -p cbr -e 512 -c 0 -i 11 -a 0 -x {0.0 2.0 11 ------- null}
r -t 0.644096 -s 0 -d 1 -p cbr -e 512 -c 0 -i 24 -a 0 -x {0.0 2.0 24 ------- null}
+ -t 0.644096 -s 1 -d 2 -p cbr -e 512 -c 0 -i 24 -a 0 -x {0.0 2.0 24 ------- null}
d -t 0.644096 -s 1 -d 2 -p cbr -e 512 -c 0 -i 24 -a 0 -x {0.0 2.0 24 ------- null}
+ -t 0.645 -s 0 -d 1 -p cbr -e 512 -c 0 -i 29 -a 0 -x {0.0 2.0 29 ------- null}
- -t 0.645 -s 0 -d 1 -p cbr -e 512 -c 0 -i 29 -a 0 -x {0.0 2.0 29 ------- null}
h -t 0.645 -s 0 -d 1 -p cbr -e 512 -c 0 -i 29 -a 0 -x {0.0 2.0 -1 ------- null}
- -t 0.646976 -s 1 -d 2 -p cbr -e 512 -c 0 -i 15 -a 0 -x {0.0 2.0 15 ------- null}
h -t 0.646976 -s 1 -d 2 -p cbr -e 512 -c 0 -i 15 -a 0 -x {0.0 2.0 -1 ------- null}
r -t 0.649096 -s 0 -d 1 -p cbr -e 512 -c 0 -i 25 -a 0 -x {0.0 2.0 25 ------- null}
+ -t 0.649096 -s 1 -d 2 -p cbr -e 512 -c 0 -i 25 -a 0 -x {0.0 2.0 25 ------- null}
+ -t 0.65 -s 0 -d 1 -p cbr -e 512 -c 0 -i 30 -a 0 -x {0.0 2.0 30 ------- null}
- -t 0.65 -s 0 -d 1 -p cbr -e 512 -c 0 -i 30 -a 0 -x {0.0 2.0 30 ------- null}
h -t 0.65 -s 0 -d 1 -p cbr -e 512 -c 0 -i 30 -a 0 -x {0.0 2.0 -1 ------- null}
r -t 0.650592 -s 1 -d 2 -p cbr -e 512 -c 0 -i 12 -a 0 -x {0.0 2.0 12 ------- null}
r -t 0.654096 -s 0 -d 1 -p cbr -e 512 -c 0 -i 26 -a 0 -x {0.0 2.0 26 ------- null}
+ -t 0.654096 -s 1 -d 2 -p cbr -e 512 -c 0 -i 26 -a 0 -x {0.0 2.0 26 ------- null}
d -t 0.654096 -s 1 -d 2 -p cbr -e 512 -c 0 -i 26 -a 0 -x {0.0 2.0 26 ------- null}
+ -t 0.655 -s 0 -d 1 -p cbr -e 512 -c 0 -i 31 -a 0 -x {0.0 2.0 31 ------- null}
- -t 0.655 -s 0 -d 1 -p cbr -e 512 -c 0 -i 31 -a 0 -x {0.0 2.0 31 ------- null}
h -t 0.655 -s 0 -d 1 -p cbr -e 512 -c 0 -i 31 -a 0 -x {0.0 2.0 -1 ------- null}
- -t 0.655168 -s 1 -d 2 -p cbr -e 512 -c 0 -i 16 -a 0 -x {0.0 2.0 16 ------- null}
h -t 0.655168 -s 1 -d 2 -p cbr -e 512 -c 0 -i 16 -a 0 -x {0.0 2.0 -1 ------- null}
r -t 0.658784 -s 1 -d 2 -p cbr -e 512 -c 0 -i 13 -a 0 -x {0.0 2.0 13 ------- null}
r -t 0.659096 -s 0 -d 1 -p cbr -e 512 -c 0 -i 27 -a 0 -x {0.0 2.0 27 ------- null}
+ -t 0.659096 -s 1 -d 2 -p cbr -e 512 -c 0 -i 27 -a 0 -x {0.0 2.0 27 ------- null}
+ -t 0.66 -s 0 -d 1 -p cbr -e 512 -c 0 -i 32 -a 0 -x {0.0 2.0 32 ------- null}
- -t 0.66 -s 0 -d 1 -p cbr -e 512 -c 0 -i 32 -a 0 -x {0.0 2.0 32 ------- null}
h -t 0.66 -s 0 -d 1 -p cbr -e 512 -c 0 -i 32 -a 0 -x {0.0 2.0 -1 ------- null}
- -t 0.66336 -s 1 -d 2 -p cbr -e 512 -c 0 -i 17 -a 0 -x {0.0 2.0 17 ------- null}
h -t 0.66336 -s 1 -d 2 -p cbr -e 512 -c 0 -i 17 -a 0 -x {0.0 2.0 -1 ------- null}
r -t 0.664096 -s 0 -d 1 -p cbr -e 512 -c 0 -i 28 -a 0 -x {0.0 2.0 28 ------- null}
+ -t 0.664096 -s 1 -d 2 -p cbr -e 512 -c 0 -i 28 -a 0 -x {0.0 2.0 28 ------- null}
+ -t 0.665 -s 0 -d 1 -p cbr -e 512 -c 0 -i 33 -a 0 -x {0.0 2.0 33 ------- null}
- -t 0.665 -s 0 -d 1 -p cbr -e 512 -c 0 -i 33 -a 0 -x {0.0 2.0 33 ------- null}
h -t 0.665 -s 0 -d 1 -p cbr -e 512 -c 0 -i 33 -a 0 -x {0.0 2.0 -1 ------- null}
r -t 0.666976 -s 1 -d 2 -p cbr -e 512 -c 0 -i 14 -a 0 -x {0.0 2.0 14 ------- null}
r -t 0.669096 -s 0 -d 1 -p cbr -e 512 -c 0 -i 29 -a 0 -x {0.0 2.0 29 ------- null}
+ -t 0.669096 -s 1 -d 2 -p cbr -e 512 -c 0 -i 29 -a 0 -x {0.0 2.0 29 ------- null}
d -t 0.669096 -s 1 -d 2 -p cbr -e 512 -c 0 -i 29 -a 0 -x {0.0 2.0 29 ------- null}
+ -t 0.67 -s 0 -d 1 -p cbr -e 512 -c 0 -i 34 -a 0 -x {0.0 2.0 34 ------- null}
- -t 0.67 -s 0 -d 1 -p cbr -e 512 -c 0 -i 34 -a 0 -x {0.0 2.0 34 ------- null}
h -t 0.67 -s 0 -d 1 -p cbr -e 512 -c 0 -i 34 -a 0 -x {0.0 2.0 -1 ------- null}
- -t 0.671552 -s 1 -d 2 -p cbr -e 512 -c 0 -i 18 -a 0 -x {0.0 2.0 18 ------- null}
h -t 0.671552 -s 1 -d 2 -p cbr -e 512 -c 0 -i 18 -a 0 -x {0.0 2.0 -1 ------- null}
r -t 0.674096 -s 0 -d 1 -p cbr -e 512 -c 0 -i 30 -a 0 -x {0.0 2.0 30 ------- null}
+ -t 0.674096 -s 1 -d 2 -p cbr -e 512 -c 0 -i 30 -a 0 -x {0.0 2.0 30 ------- null}
+ -t 0.675 -s 0 -d 1 -p cbr -e 512 -c 0 -i 35 -a 0 -x {0.0 2.0 35 ------- null}
- -t 0.675 -s 0 -d 1 -p cbr -e 512 -c 0 -i 35 -a 0 -x {0.0 2.0 35 ------- null}
h -t 0.675 -s 0 -d 1 -p cbr -e 512 -c 0 -i 35 -a 0 -x {0.0 2.0 -1 ------- null}
r -t 0.675168 -s 1 -d 2 -p cbr -e 512 -c 0 -i 15 -a 0 -x {0.0 2.0 15 ------- null}
r -t 0.679096 -s 0 -d 1 -p cbr -e 512 -c 0 -i 31 -a 0 -x {0.0 2.0 31 ------- null}
+ -t 0.679096 -s 1 -d 2 -p cbr -e 512 -c 0 -i 31 -a 0 -x {0.0 2.0 31 ------- null}
d -t 0.679096 -s 1 -d 2 -p cbr -e 512 -c 0 -i 31 -a 0 -x {0.0 2.0 31 ------- null}
- -t 0.679744 -s 1 -d 2 -p cbr -e 512 -c 0 -i 19 -a 0 -x {0.0 2.0 19 ------- null}
h -t 0.679744 -s 1 -d 2 -p cbr -e 512 -c 0 -i 19 -a 0 -x {0.0 2.0 -1 ------- null}
+ -t 0.68 -s 0 -d 1 -p cbr -e 512 -c 0 -i 36 -a 0 -x {0.0 2.0 36 ------- null}
- -t 0.68 -s 0 -d 1 -p cbr -e 512 -c 0 -i 36 -a 0 -x {0.0 2.0 36 ------- null}
h -t 0.68 -s 0 -d 1 -p cbr -e 512 -c 0 -i 36 -a 0 -x {0.0 2.0 -1 ------- null}
r -t 0.68336 -s 1 -d 2 -p cbr -e 512 -c 0 -i 16 -a 0 -x {0.0 2.0 16 ------- null}
r -t 0.684096 -s 0 -d 1 -p cbr -e 512 -c 0 -i 32 -a 0 -x {0.0 2.0 32 ------- null}
+ -t 0.684096 -s 1 -d 2 -p cbr -e 512 -c 0 -i 32 -a 0 -x {0.0 2.0 32 ------- null}
+ -t 0.685 -s 0 -d 1 -p cbr -e 512 -c 0 -i 37 -a 0 -x {0.0 2.0 37 ------- null}
- -t 0.685 -s 0 -d 1 -p cbr -e 512 -c 0 -i 37 -a 0 -x {0.0 2.0 37 ------- null}
h -t 0.685 -s 0 -d 1 -p cbr -e 512 -c 0 -i 37 -a 0 -x {0.0 2.0 -1 ------- null}
- -t 0.687936 -s 1 -d 2 -p cbr -e 512 -c 0 -i 20 -a 0 -x {0.0 2.0 20 ------- null}
h -t 0.687936 -s 1 -d 2 -p cbr -e 512 -c 0 -i 20 -a 0 -x {0.0 2.0 -1 ------- null}
r -t 0.689096 -s 0 -d 1 -p cbr -e 512 -c 0 -i 33 -a 0 -x {0.0 2.0 33 ------- null}
+ -t 0.689096 -s 1 -d 2 -p cbr -e 512 -c 0 -i 33 -a 0 -x {0.0 2.0 33 ------- null}
+ -t 0.69 -s 0 -d 1 -p cbr -e 512 -c 0 -i 38 -a 0 -x {0.0 2.0 38 ------- null}
- -t 0.69 -s 0 -d 1 -p cbr -e 512 -c 0 -i 38 -a 0 -x {0.0 2.0 38 ------- null}
h -t 0.69 -s 0 -d 1 -p cbr -e 512 -c 0 -i 38 -a 0 -x {0.0 2.0 -1 ------- null}
r -t 0.691552 -s 1 -d 2 -p cbr -e 512 -c 0 -i 17 -a 0 -x {0.0 2.0 17 ------- null}
r -t 0.694096 -s 0 -d 1 -p cbr -e 512 -c 0 -i 34 -a 0 -x {0.0 2.0 34 ------- null}
+ -t 0.694096 -s 1 -d 2 -p cbr -e 512 -c 0 -i 34 -a 0 -x {0.0 2.0 34 ------- null}
d -t 0.694096 -s 1 -d 2 -p cbr -e 512 -c 0 -i 34 -a 0 -x {0.0 2.0 34 ------- null}
+ -t 0.695 -s 0 -d 1 -p cbr -e 512 -c 0 -i 39 -a 0 -x {0.0 2.0 39 ------- null}
- -t 0.695 -s 0 -d 1 -p cbr -e 512 -c 0 -i 39 -a 0 -x {0.0 2.0 39 ------- null}
h -t 0.695 -s 0 -d 1 -p cbr -e 512 -c 0 -i 39 -a 0 -x {0.0 2.0 -1 ------- null}
- -t 0.696128 -s 1 -d 2 -p cbr -e 512 -c 0 -i 21 -a 0 -x {0.0 2.0 21 ------- null}
h -t 0.696128 -s 1 -d 2 -p cbr -e 512 -c 0 -i 21 -a 0 -x {0.0 2.0 -1 ------- null}
r -t 0.699096 -s 0 -d 1 -p cbr -e 512 -c 0 -i 35 -a 0 -x {0.0 2.0 35 ------- null}
+ -t 0.699096 -s 1 -d 2 -p cbr -e 512 -c 0 -i 35 -a 0 -x {0.0 2.0 35 ------- null}
r -t 0.699744 -s 1 -d 2 -p cbr -e 512 -c 0 -i 18 -a 0 -x {0.0 2.0 18 ------- null}
+ -t 0.7 -s 0 -d 1 -p cbr -e 512 -c 0 -i 40 -a 0 -x {0.0 2.0 40 ------- null}
- -t 0.7 -s 0 -d 1 -p cbr -e 512 -c 0 -i 40 -a 0 -x {0.0 2.0 40 ------- null}
h -t 0.7 -s 0 -d 1 -p cbr -e 512 -c 0 -i 40 -a 0 -x {0.0 2.0 -1 ------- null}
r -t 0.704096 -s 0 -d 1 -p cbr -e 512 -c 0 -i 36 -a 0 -x {0.0 2.0 36 ------- null}
+ -t 0.704096 -s 1 -d 2 -p cbr -e 512 -c 0 -i 36 -a 0 -x {0.0 2.0 36 ------- null}
d -t 0.704096 -s 1 -d 2 -p cbr -e 512 -c 0 -i 36 -a 0 -x {0.0 2.0 36 ------- null}
- -t 0.70432 -s 1 -d 2 -p cbr -e 512 -c 0 -i 22 -a 0 -x {0.0 2.0 22 ------- null}
h -t 0.70432 -s 1 -d 2 -p cbr -e 512 -c 0 -i 22 -a 0 -x {0.0 2.0 -1 ------- null}
+ -t 0.705 -s 0 -d 1 -p cbr -e 512 -c 0 -i 41 -a 0 -x {0.0 2.0 41 ------- null}
- -t 0.705 -s 0 -d 1 -p cbr -e 512 -c 0 -i 41 -a 0 -x {0.0 2.0 41 ------- null}
h -t 0.705 -s 0 -d 1 -p cbr -e 512 -c 0 -i 41 -a 0 -x {0.0 2.0 -1 ------- null}
r -t 0.707936 -s 1 -d 2 -p cbr -e 512 -c 0 -i 19 -a 0 -x {0.0 2.0 19 ------- null}
r -t 0.709096 -s 0 -d 1 -p cbr -e 512 -c 0 -i 37 -a 0 -x {0.0 2.0 37 ------- null}
+ -t 0.709096 -s 1 -d 2 -p cbr -e 512 -c 0 -i 37 -a 0 -x {0.0 2.0 37 ------- null}
+ -t 0.71 -s 0 -d 1 -p cbr -e 512 -c 0 -i 42 -a 0 -x {0.0 2.0 42 ------- null}
- -t 0.71 -s 0 -d 1 -p cbr -e 512 -c 0 -i 42 -a 0 -x {0.0 2.0 42 ------- null}
h -t 0.71 -s 0 -d 1 -p cbr -e 512 -c 0 -i 42 -a 0 -x {0.0 2.0 -1 ------- null}
- -t 0.712511999999999 -s 1 -d 2 -p cbr -e 512 -c 0 -i 23 -a 0 -x {0.0 2.0 23 ------- null}
h -t 0.712511999999999 -s 1 -d 2 -p cbr -e 512 -c 0 -i 23 -a 0 -x {0.0 2.0 -1 ------- null}
r -t 0.714096 -s 0 -d 1 -p cbr -e 512 -c 0 -i 38 -a 0 -x {0.0 2.0 38 ------- null}
+ -t 0.714096 -s 1 -d 2 -p cbr -e 512 -c 0 -i 38 -a 0 -x {0.0 2.0 38 ------- null}
+ -t 0.715 -s 0 -d 1 -p cbr -e 512 -c 0 -i 43 -a 0 -x {0.0 2.0 43 ------- null}
- -t 0.715 -s 0 -d 1 -p cbr -e 512 -c 0 -i 43 -a 0 -x {0.0 2.0 43 ------- null}
h -t 0.715 -s 0 -d 1 -p cbr -e 512 -c 0 -i 43 -a 0 -x {0.0 2.0 -1 ------- null}
r -t 0.716128 -s 1 -d 2 -p cbr -e 512 -c 0 -i 20 -a 0 -x {0.0 2.0 20 ------- null}
r -t 0.719096 -s 0 -d 1 -p cbr -e 512 -c 0 -i 39 -a 0 -x {0.0 2.0 39 ------- null}
+ -t 0.719096 -s 1 -d 2 -p cbr -e 512 -c 0 -i 39 -a 0 -x {0.0 2.0 39 ------- null}
d -t 0.719096 -s 1 -d 2 -p cbr -e 512 -c 0 -i 39 -a 0 -x {0.0 2.0 39 ------- null}
+ -t 0.72 -s 0 -d 1 -p cbr -e 512 -c 0 -i 44 -a 0 -x {0.0 2.0 44 ------- null}
- -t 0.72 -s 0 -d 1 -p cbr -e 512 -c 0 -i 44 -a 0 -x {0.0 2.0 44 ------- null}
h -t 0.72 -s 0 -d 1 -p cbr -e 512 -c 0 -i 44 -a 0 -x {0.0 2.0 -1 ------- null}
- -t 0.720703999999999 -s 1 -d 2 -p cbr -e 512 -c 0 -i 25 -a 0 -x {0.0 2.0 25 ------- null}
h -t 0.720703999999999 -s 1 -d 2 -p cbr -e 512 -c 0 -i 25 -a 0 -x {0.0 2.0 -1 ------- null}
r -t 0.724096 -s 0 -d 1 -p cbr -e 512 -c 0 -i 40 -a 0 -x {0.0 2.0 40 ------- null}
+ -t 0.724096 -s 1 -d 2 -p cbr -e 512 -c 0 -i 40 -a 0 -x {0.0 2.0 40 ------- null}
r -t 0.72432 -s 1 -d 2 -p cbr -e 512 -c 0 -i 21 -a 0 -x {0.0 2.0 21 ------- null}
+ -t 0.725 -s 0 -d 1 -p cbr -e 512 -c 0 -i 45 -a 0 -x {0.0 2.0 45 ------- null}
- -t 0.725 -s 0 -d 1 -p cbr -e 512 -c 0 -i 45 -a 0 -x {0.0 2.0 45 ------- null}
h -t 0.725 -s 0 -d 1 -p cbr -e 512 -c 0 -i 45 -a 0 -x {0.0 2.0 -1 ------- null}
- -t 0.728895999999999 -s 1 -d 2 -p cbr -e 512 -c 0 -i 27 -a 0 -x {0.0 2.0 27 ------- null}
h -t 0.728895999999999 -s 1 -d 2 -p cbr -e 512 -c 0 -i 27 -a 0 -x {0.0 2.0 -1 ------- null}
r -t 0.729096 -s 0 -d 1 -p cbr -e 512 -c 0 -i 41 -a 0 -x {0.0 2.0 41 ------- null}
+ -t 0.729096 -s 1 -d 2 -p cbr -e 512 -c 0 -i 41 -a 0 -x {0.0 2.0 41 ------- null}
+ -t 0.73 -s 0 -d 1 -p cbr -e 512 -c 0 -i 46 -a 0 -x {0.0 2.0 46 ------- null}
- -t 0.73 -s 0 -d 1 -p cbr -e 512 -c 0 -i 46 -a 0 -x {0.0 2.0 46 ------- null}
h -t 0.73 -s 0 -d 1 -p cbr -e 512 -c 0 -i 46 -a 0 -x {0.0 2.0 -1 ------- null}
r -t 0.732511999999999 -s 1 -d 2 -p cbr -e 512 -c 0 -i 22 -a 0 -x {0.0 2.0 22 ------- null}
r -t 0.734096 -s 0 -d 1 -p cbr -e 512 -c 0 -i 42 -a 0 -x {0.0 2.0 42 ------- null}
+ -t 0.734096 -s 1 -d 2 -p cbr -e 512 -c 0 -i 42 -a 0 -x {0.0 2.0 42 ------- null}
d -t 0.734096 -s 1 -d 2 -p cbr -e 512 -c 0 -i 42 -a 0 -x {0.0 2.0 42 ------- null}
+ -t 0.735 -s 0 -d 1 -p cbr -e 512 -c 0 -i 47 -a 0 -x {0.0 2.0 47 ------- null}
- -t 0.735 -s 0 -d 1 -p cbr -e 512 -c 0 -i 47 -a 0 -x {0.0 2.0 47 ------- null}
h -t 0.735 -s 0 -d 1 -p cbr -e 512 -c 0 -i 47 -a 0 -x {0.0 2.0 -1 ------- null}
- -t 0.737087999999999 -s 1 -d 2 -p cbr -e 512 -c 0 -i 28 -a 0 -x {0.0 2.0 28 ------- null}
h -t 0.737087999999999 -s 1 -d 2 -p cbr -e 512 -c 0 -i 28 -a 0 -x {0.0 2.0 -1 ------- null}
r -t 0.739096 -s 0 -d 1 -p cbr -e 512 -c 0 -i 43 -a 0 -x {0.0 2.0 43 ------- null}
+ -t 0.739096 -s 1 -d 2 -p cbr -e 512 -c 0 -i 43 -a 0 -x {0.0 2.0 43 ------- null}
+ -t 0.74 -s 0 -d 1 -p cbr -e 512 -c 0 -i 48 -a 0 -x {0.0 2.0 48 ------- null}
- -t 0.74 -s 0 -d 1 -p cbr -e 512 -c 0 -i 48 -a 0 -x {0.0 2.0 48 ------- null}
h -t 0.74 -s 0 -d 1 -p cbr -e 512 -c 0 -i 48 -a 0 -x {0.0 2.0 -1 ------- null}
r -t 0.740703999999999 -s 1 -d 2 -p cbr -e 512 -c 0 -i 23 -a 0 -x {0.0 2.0 23 ------- null}
r -t 0.744096 -s 0 -d 1 -p cbr -e 512 -c 0 -i 44 -a 0 -x {0.0 2.0 44 ------- null}
+ -t 0.744096 -s 1 -d 2 -p cbr -e 512 -c 0 -i 44 -a 0 -x {0.0 2.0 44 ------- null}
d -t 0.744096 -s 1 -d 2 -p cbr -e 512 -c 0 -i 44 -a 0 -x {0.0 2.0 44 ------- null}
+ -t 0.745 -s 0 -d 1 -p cbr -e 512 -c 0 -i 49 -a 0 -x {0.0 2.0 49 ------- null}
- -t 0.745 -s 0 -d 1 -p cbr -e 512 -c 0 -i 49 -a 0 -x {0.0 2.0 49 ------- null}
h -t 0.745 -s 0 -d 1 -p cbr -e 512 -c 0 -i 49 -a 0 -x {0.0 2.0 -1 ------- null}
- -t 0.745279999999999 -s 1 -d 2 -p cbr -e 512 -c 0 -i 30 -a 0 -x {0.0 2.0 30 ------- null}
h -t 0.745279999999999 -s 1 -d 2 -p cbr -e 512 -c 0 -i 30 -a 0 -x {0.0 2.0 -1 ------- null}
r -t 0.748895999999999 -s 1 -d 2 -p cbr -e 512 -c 0 -i 25 -a 0 -x {0.0 2.0 25 ------- null}
r -t 0.749096 -s 0 -d 1 -p cbr -e 512 -c 0 -i 45 -a 0 -x {0.0 2.0 45 ------- null}
+ -t 0.749096 -s 1 -d 2 -p cbr -e 512 -c 0 -i 45 -a 0 -x {0.0 2.0 45 ------- null}
+ -t 0.75 -s 0 -d 1 -p cbr -e 512 -c 0 -i 50 -a 0 -x {0.0 2.0 50 ------- null}
- -t 0.75 -s 0 -d 1 -p cbr -e 512 -c 0 -i 50 -a 0 -x {0.0 2.0 50 ------- null}
h -t 0.75 -s 0 -d 1 -p cbr -e 512 -c 0 -i 50 -a 0 -x {0.0 2.0 -1 ------- null}
- -t 0.753471999999999 -s 1 -d 2 -p cbr -e 512 -c 0 -i 32 -a 0 -x {0.0 2.0 32 ------- null}
h -t 0.753471999999999 -s 1 -d 2 -p cbr -e 512 -c 0 -i 32 -a 0 -x {0.0 2.0 -1 ------- null}
r -t 0.754096 -s 0 -d 1 -p cbr -e 512 -c 0 -i 46 -a 0 -x {0.0 2.0 46 ------- null}
+ -t 0.754096 -s 1 -d 2 -p cbr -e 512 -c 0 -i 46 -a 0 -x {0.0 2.0 46 ------- null}
+ -t 0.755 -s 0 -d 1 -p cbr -e 512 -c 0 -i 51 -a 0 -x {0.0 2.0 51 ------- null}
- -t 0.755 -s 0 -d 1 -p cbr -e 512 -c 0 -i 51 -a 0 -x {0.0 2.0 51 ------- null}
h -t 0.755 -s 0 -d 1 -p cbr -e 512 -c 0 -i 51 -a 0 -x {0.0 2.0 -1 ------- null}
r -t 0.757087999999999 -s 1 -d 2 -p cbr -e 512 -c 0 -i 27 -a 0 -x {0.0 2.0 27 ------- null}
r -t 0.759096 -s 0 -d 1 -p cbr -e 512 -c 0 -i 47 -a 0 -x {0.0 2.0 47 ------- null}
+ -t 0.759096 -s 1 -d 2 -p cbr -e 512 -c 0 -i 47 -a 0 -x {0.0 2.0 47 ------- null}
d -t 0.759096 -s 1 -d 2 -p cbr -e 512 -c 0 -i 47 -a 0 -x {0.0 2.0 47 ------- null}
+ -t 0.76 -s 0 -d 1 -p cbr -e 512 -c 0 -i 52 -a 0 -x {0.0 2.0 52 ------- null}
- -t 0.76 -s 0 -d 1 -p cbr -e 512 -c 0 -i 52 -a 0 -x {0.0 2.0 52 ------- null}
h -t 0.76 -s 0 -d 1 -p cbr -e 512 -c 0 -i 52 -a 0 -x {0.0 2.0 -1 ------- null}
- -t 0.761663999999999 -s 1 -d 2 -p cbr -e 512 -c 0 -i 33 -a 0 -x {0.0 2.0 33 ------- null}
h -t 0.761663999999999 -s 1 -d 2 -p cbr -e 512 -c 0 -i 33 -a 0 -x {0.0 2.0 -1 ------- null}
r -t 0.764096 -s 0 -d 1 -p cbr -e 512 -c 0 -i 48 -a 0 -x {0.0 2.0 48 ------- null}
+ -t 0.764096 -s 1 -d 2 -p cbr -e 512 -c 0 -i 48 -a 0 -x {0.0 2.0 48 ------- null}
+ -t 0.765 -s 0 -d 1 -p cbr -e 512 -c 0 -i 53 -a 0 -x {0.0 2.0 53 ------- null}
- -t 0.765 -s 0 -d 1 -p cbr -e 512 -c 0 -i 53 -a 0 -x {0.0 2.0 53 ------- null}
h -t 0.765 -s 0 -d 1 -p cbr -e 512 -c 0 -i 53 -a 0 -x {0.0 2.0 -1 ------- null}
r -t 0.765279999999999 -s 1 -d 2 -p cbr -e 512 -c 0 -i 28 -a 0 -x {0.0 2.0 28 ------- null}
r -t 0.769096 -s 0 -d 1 -p cbr -e 512 -c 0 -i 49 -a 0 -x {0.0 2.0 49 ------- null}
+ -t 0.769096 -s 1 -d 2 -p cbr -e 512 -c 0 -i 49 -a 0 -x {0.0 2.0 49 ------- null}
d -t 0.769096 -s 1 -d 2 -p cbr -e 512 -c 0 -i 49 -a 0 -x {0.0 2.0 49 ------- null}
- -t 0.769855999999999 -s 1 -d 2 -p cbr -e 512 -c 0 -i 35 -a 0 -x {0.0 2.0 35 ------- null}
h -t 0.769855999999999 -s 1 -d 2 -p cbr -e 512 -c 0 -i 35 -a 0 -x {0.0 2.0 -1 ------- null}
+ -t 0.77 -s 0 -d 1 -p cbr -e 512 -c 0 -i 54 -a 0 -x {0.0 2.0 54 ------- null}