+ 0.5 0 1 cbr 512 ------- 0 0.0 2.0 0 0
- 0.5 0 1 cbr 512 ------- 0 0.0 2.0 0 0
+ 0.505 0 1 cbr 512 ------- 0 0.0 2.0 1 1
- 0.505 0 1 cbr 512 ------- 0 0.0 2.0 1 1
+ 0.51 0 1 cbr 512 ------- 0 0.0 2.0 2 2
- 0.51 0 1 cbr 512 ------- 0 0.0 2.0 2 2
+ 0.515 0 1 cbr 512 ------- 0 0.0 2.0 3 3
- 0.515 0 1 cbr 512 ------- 0 0.0 2.0 3 3
+ 0.52 0 1 cbr 512 ------- 0 0.0 2.0 4 4
- 0.52 0 1 cbr 512 ------- 0 0.0 2.0 4 4
r 0.524096 0 1 cbr 512 ------- 0 0.0 2.0 0 0
+ 0.524096 1 2 cbr 512 ------- 0 0.0 2.0 0 0
- 0.524096 1 2 cbr 512 ------- 0 0.0 2.0 0 0
+ 0.525 0 1 cbr 512 ------- 0 0.0 2.0 5 5
- 0.525 0 1 cbr 512 ------- 0 0.0 2.0 5 5
r 0.529096 0 1 cbr 512 ------- 0 0.0 2.0 1 1
+ 0.529096 1 2 cbr 512 ------- 0 0.0 2.0 1 1
+ 0.53 0 1 cbr 512 ------- 0 0.0 2.0 6 6
- 0.53 0 1 cbr 512 ------- 0 0.0 2.0 6 6
- 0.532288 1 2 cbr 512 ------- 0 0.0 2.0 1 1
r 0.534096 0 1 cbr 512 ------- 0 0.0 2.0 2 2
+ 0.534096 1 2 cbr 512 ------- 0 0.0 2.0 2 2
+ 0.535 0 1 cbr 512 ------- 0 0.0 2.0 7 7
- 0.535 0 1 cbr 512 ------- 0 0.0 2.0 7 7
r 0.539096 0 1 cbr 512 ------- 0 0.0 2.0 3 3
+ 0.539096 1 2 cbr 512 ------- 0 0.0 2.0 3 3
+ 0.54 0 1 cbr 512 ------- 0 0.0 2.0 8 8
- 0.54 0 1 cbr 512 ------- 0 0.0 2.0 8 8
- 0.54048 1 2 cbr 512 ------- 0 0.0 2.0 2 2
r 0.544096 0 1 cbr 512 ------- 0 0.0 2.0 4 4
+ 0.544096 1 2 cbr 512 ------- 0 0.0 2.0 4 4
+ 0.545 0 1 cbr 512 ------- 0 0.0 2.0 9 9
- 0.545 0 1 cbr 512 ------- 0 0.0 2.0 9 9
- 0.548672 1 2 cbr 512 ------- 0 0.0 2.0 3 3
r 0.549096 0 1 cbr 512 ------- 0 0.0 2.0 5 5
+ 0.549096 1 2 cbr 512 ------- 0 0.0 2.0 5 5
+ 0.55 0 1 cbr 512 ------- 0 0.0 2.0 10 10
- 0.55 0 1 cbr 512 ------- 0 0.0 2.0 10 10
r 0.552288 1 2 cbr 512 ------- 0 0.0 2.0 0 0
r 0.554096 0 1 cbr 512 ------- 0 0.0 2.0 6 6
+ 0.554096 1 2 cbr 512 ------- 0 0.0 2.0 6 6
+ 0.555 0 1 cbr 512 ------- 0 0.0 2.0 11 11
- 0.555 0 1 cbr 512 ------- 0 0.0 2.0 11 11
- 0.556864 1 2 cbr 512 ------- 0 0.0 2.0 4 4
r 0.559096 0 1 cbr 512 ------- 0 0.0 2.0 7 7
+ 0.559096 1 2 cbr 512 ------- 0 0.0 2.0 7 7
+ 0.56 0 1 cbr 512 ------- 0 0.0 2.0 12 12
- 0.56 0 1 cbr 512 ------- 0 0.0 2.0 12 12
r 0.56048 1 2 cbr 512 ------- 0 0.0 2.0 1 1
r 0.564096 0 1 cbr 512 ------- 0 0.0 2.0 8 8
+ 0.564096 1 2 cbr 512 ------- 0 0.0 2.0 8 8
+ 0.565 0 1 cbr 512 ------- 0 0.0 2.0 13 13
- 0.565 0 1 cbr 512 ------- 0 0.0 2.0 13 13
- 0.565056 1 2 cbr 512 ------- 0 0.0 2.0 5 5
r 0.568672 1 2 cbr 512 ------- 0 0.0 2.0 2 2
r 0.569096 0 1 cbr 512 ------- 0 0.0 2.0 9 9
+ 0.569096 1 2 cbr 512 ------- 0 0.0 2.0 9 9
+ 0.57 0 1 cbr 512 ------- 0 0.0 2.0 14 14
- 0.57 0 1 cbr 512 ------- 0 0.0 2.0 14 14
- 0.573248 1 2 cbr 512 ------- 0 0.0 2.0 6 6
r 0.574096 0 1 cbr 512 ------- 0 0.0 2.0 10 10
+ 0.574096 1 2 cbr 512 ------- 0 0.0 2.0 10 10
+ 0.575 0 1 cbr 512 ------- 0 0.0 2.0 15 15
- 0.575 0 1 cbr 512 ------- 0 0.0 2.0 15 15
r 0.576864 1 2 cbr 512 ------- 0 0.0 2.0 3 3
r 0.579096 0 1 cbr 512 ------- 0 0.0 2.0 11 11
+ 0.579096 1 2 cbr 512 ------- 0 0.0 2.0 11 11
+ 0.58 0 1 cbr 512 ------- 0 0.0 2.0 16 16
- 0.58 0 1 cbr 512 ------- 0 0.0 2.0 16 16
- 0.58144 1 2 cbr 512 ------- 0 0.0 2.0 7 7
r 0.584096 0 1 cbr 512 ------- 0 0.0 2.0 12 12
+ 0.584096 1 2 cbr 512 ------- 0 0.0 2.0 12 12
+ 0.585 0 1 cbr 512 ------- 0 0.0 2.0 17 17
- 0.585 0 1 cbr 512 ------- 0 0.0 2.0 17 17
r 0.585056 1 2 cbr 512 ------- 0 0.0 2.0 4 4
r 0.589096 0 1 cbr 512 ------- 0 0.0 2.0 13 13
+ 0.589096 1 2 cbr 512 ------- 0 0.0 2.0 13 13
- 0.589632 1 2 cbr 512 ------- 0 0.0 2.0 8 8
+ 0.59 0 1 cbr 512 ------- 0 0.0 2.0 18 18
- 0.59 0 1 cbr 512 ------- 0 0.0 2.0 18 18
r 0.593248 1 2 cbr 512 ------- 0 0.0 2.0 5 5
r 0.594096 0 1 cbr 512 ------- 0 0.0 2.0 14 14
+ 0.594096 1 2 cbr 512 ------- 0 0.0 2.0 14 14
+ 0.595 0 1 cbr 512 ------- 0 0.0 2.0 19 19
- 0.595 0 1 cbr 512 ------- 0 0.0 2.0 19 19
- 0.597824 1 2 cbr 512 ------- 0 0.0 2.0 9 9
r 0.599096 0 1 cbr 512 ------- 0 0.0 2.0 15 15
+ 0.599096 1 2 cbr 512 ------- 0 0.0 2.0 15 15
+ 0.6 0 1 cbr 512 ------- 0 0.0 2.0 20 20
- 0.6 0 1 cbr 512 ------- 0 0.0 2.0 20 20
r 0.60144 1 2 cbr 512 ------- 0 0.0 2.0 6 6
r 0.604096 0 1 cbr 512 ------- 0 0.0 2.0 16 16
+ 0.604096 1 2 cbr 512 ------- 0 0.0 2.0 16 16
+ 0.605 0 1 cbr 512 ------- 0 0.0 2.0 21 21
- 0.605 0 1 cbr 512 ------- 0 0.0 2.0 21 21
- 0.606016 1 2 cbr 512 ------- 0 0.0 2.0 10 10
r 0.609096 0 1 cbr 512 ------- 0 0.0 2.0 17 17
+ 0.609096 1 2 cbr 512 ------- 0 0.0 2.0 17 17
r 0.609632 1 2 cbr 512 ------- 0 0.0 2.0 7 7
+ 0.61 0 1 cbr 512 ------- 0 0.0 2.0 22 22
- 0.61 0 1 cbr 512 ------- 0 0.0 2.0 22 22
r 0.614096 0 1 cbr 512 ------- 0 0.0 2.0 18 18
+ 0.614096 1 2 cbr 512 ------- 0 0.0 2.0 18 18
- 0.614208 1 2 cbr 512 ------- 0 0.0 2.0 11 11
+ 0.615 0 1 cbr 512 ------- 0 0.0 2.0 23 23
- 0.615 0 1 cbr 512 ------- 0 0.0 2.0 23 23
r 0.617824 1 2 cbr 512 ------- 0 0.0 2.0 8 8
r 0.619096 0 1 cbr 512 ------- 0 0.0 2.0 19 19
+ 0.619096 1 2 cbr 512 ------- 0 0.0 2.0 19 19
+ 0.62 0 1 cbr 512 ------- 0 0.0 2.0 24 24
- 0.62 0 1 cbr 512 ------- 0 0.0 2.0 24 24
- 0.6224 1 2 cbr 512 ------- 0 0.0 2.0 12 12
r 0.624096 0 1 cbr 512 ------- 0 0.0 2.0 20 20
+ 0.624096 1 2 cbr 512 ------- 0 0.0 2.0 20 20
+ 0.625 0 1 cbr 512 ------- 0 0.0 2.0 25 25
- 0.625 0 1 cbr 512 ------- 0 0.0 2.0 25 25
r 0.626016 1 2 cbr 512 ------- 0 0.0 2.0 9 9
r 0.629096 0 1 cbr 512 ------- 0 0.0 2.0 21 21
+ 0.629096 1 2 cbr 512 ------- 0 0.0 2.0 21 21
+ 0.63 0 1 cbr 512 ------- 0 0.0 2.0 26 26
- 0.63 0 1 cbr 512 ------- 0 0.0 2.0 26 26
- 0.630592 1 2 cbr 512 ------- 0 0.0 2.0 13 13
r 0.634096 0 1 cbr 512 ------- 0 0.0 2.0 22 22
+ 0.634096 1 2 cbr 512 ------- 0 0.0 2.0 22 22
r 0.634208 1 2 cbr 512 ------- 0 0.0 2.0 10 10
+ 0.635 0 1 cbr 512 ------- 0 0.0 2.0 27 27
- 0.635 0 1 cbr 512 ------- 0 0.0 2.0 27 27
- 0.638784 1 2 cbr 512 ------- 0 0.0 2.0 14 14
r 0.639096 0 1 cbr 512 ------- 0 0.0 2.0 23 23
+ 0.639096 1 2 cbr 512 ------- 0 0.0 2.0 23 23
+ 0.64 0 1 cbr 512 ------- 0 0.0 2.0 28 28
- 0.64 0 1 cbr 512 ------- 0 0.0 2.0 28 28
r 0.6424 1 2 cbr 512 ------- 0 0.0 2.0 11 11
r 0.644096 0 1 cbr 512 ------- 0 0.0 2.0 24 24
+ 0.644096 1 2 cbr 512 ------- 0 0.0 2.0 24 24
d 0.644096 1 2 cbr 512 ------- 0 0.0 2.0 24 24
+ 0.645 0 1 cbr 512 ------- 0 0.0 2.0 29 29
- 0.645 0 1 cbr 512 ------- 0 0.0 2.0 29 29
- 0.646976 1 2 cbr 512 ------- 0 0.0 2.0 15 15
r 0.649096 0 1 cbr 512 ------- 0 0.0 2.0 25 25
+ 0.649096 1 2 cbr 512 ------- 0 0.0 2.0 25 25
+ 0.65 0 1 cbr 512 ------- 0 0.0 2.0 30 30
- 0.65 0 1 cbr 512 ------- 0 0.0 2.0 30 30
r 0.650592 1 2 cbr 512 ------- 0 0.0 2.0 12 12
r 0.654096 0 1 cbr 512 ------- 0 0.0 2.0 26 26
+ 0.654096 1 2 cbr 512 ------- 0 0.0 2.0 26 26
d 0.654096 1 2 cbr 512 ------- 0 0.0 2.0 26 26
+ 0.655 0 1 cbr 512 ------- 0 0.0 2.0 31 31
- 0.655 0 1 cbr 512 ------- 0 0.0 2.0 31 31
- 0.655168 1 2 cbr 512 ------- 0 0.0 2.0 16 16
r 0.658784 1 2 cbr 512 ------- 0 0.0 2.0 13 13
r 0.659096 0 1 cbr 512 ------- 0 0.0 2.0 27 27
+ 0.659096 1 2 cbr 512 ------- 0 0.0 2.0 27 27
+ 0.66 0 1 cbr 512 ------- 0 0.0 2.0 32 32
- 0.66 0 1 cbr 512 ------- 0 0.0 2.0 32 32
- 0.66336 1 2 cbr 512 ------- 0 0.0 2.0 17 17
r 0.664096 0 1 cbr 512 ------- 0 0.0 2.0 28 28
+ 0.664096 1 2 cbr 512 ------- 0 0.0 2.0 28 28
+ 0.665 0 1 cbr 512 ------- 0 0.0 2.0 33 33
- 0.665 0 1 cbr 512 ------- 0 0.0 2.0 33 33
r 0.666976 1 2 cbr 512 ------- 0 0.0 2.0 14 14
r 0.669096 0 1 cbr 512 ------- 0 0.0 2.0 29 29
+ 0.669096 1 2 cbr 512 ------- 0 0.0 2.0 29 29
d 0.669096 1 2 cbr 512 ------- 0 0.0 2.0 29 29
+ 0.67 0 1 cbr 512 ------- 0 0.0 2.0 34 34
- 0.67 0 1 cbr 512 ------- 0 0.0 2.0 34 34
- 0.671552 1 2 cbr 512 ------- 0 0.0 2.0 18 18
r 0.674096 0 1 cbr 512 ------- 0 0.0 2.0 30 30
+ 0.674096 1 2 cbr 512 ------- 0 0.0 2.0 30 30
+ 0.675 0 1 cbr 512 ------- 0 0.0 2.0 35 35
- 0.675 0 1 cbr 512 ------- 0 0.0 2.0 35 35
r 0.675168 1 2 cbr 512 ------- 0 0.0 2.0 15 15
r 0.679096 0 1 cbr 512 ------- 0 0.0 2.0 31 31
+ 0.679096 1 2 cbr 512 ------- 0 0.0 2.0 31 31
d 0.679096 1 2 cbr 512 ------- 0 0.0 2.0 31 31
- 0.679744 1 2 cbr 512 ------- 0 0.0 2.0 19 19
+ 0.68 0 1 cbr 512 ------- 0 0.0 2.0 36 36
- 0.68 0 1 cbr 512 ------- 0 0.0 2.0 36 36
r 0.68336 1 2 cbr 512 ------- 0 0.0 2.0 16 16
r 0.684096 0 1 cbr 512 ------- 0 0.0 2.0 32 32
+ 0.684096 1 2 cbr 512 ------- 0 0.0 2.0 32 32
+ 0.685 0 1 cbr 512 ------- 0 0.0 2.0 37 37
- 0.685 0 1 cbr 512 ------- 0 0.0 2.0 37 37
- 0.687936 1 2 cbr 512 ------- 0 0.0 2.0 20 20
r 0.689096 0 1 cbr 512 ------- 0 0.0 2.0 33 33
+ 0.689096 1 2 cbr 512 ------- 0 0.0 2.0 33 33
+ 0.69 0 1 cbr 512 ------- 0 0.0 2.0 38 38
- 0.69 0 1 cbr 512 ------- 0 0.0 2.0 38 38
r 0.691552 1 2 cbr 512 ------- 0 0.0 2.0 17 17
r 0.694096 0 1 cbr 512 ------- 0 0.0 2.0 34 34
+ 0.694096 1 2 cbr 512 ------- 0 0.0 2.0 34 34
d 0.694096 1 2 cbr 512 ------- 0 0.0 2.0 34 34
+ 0.695 0 1 cbr 512 ------- 0 0.0 2.0 39 39
- 0.695 0 1 cbr 512 ------- 0 0.0 2.0 39 39
- 0.696128 1 2 cbr 512 ------- 0 0.0 2.0 21 21
r 0.699096 0 1 cbr 512 ------- 0 0.0 2.0 35 35
+ 0.699096 1 2 cbr 512 ------- 0 0.0 2.0 35 35
r 0.699744 1 2 cbr 512 ------- 0 0.0 2.0 18 18
+ 0.7 0 1 cbr 512 ------- 0 0.0 2.0 40 40
- 0.7 0 1 cbr 512 ------- 0 0.0 2.0 40 40
r 0.704096 0 1 cbr 512 ------- 0 0.0 2.0 36 36
+ 0.704096 1 2 cbr 512 ------- 0 0.0 2.0 36 36
d 0.704096 1 2 cbr 512 ------- 0 0.0 2.0 36 36
- 0.70432 1 2 cbr 512 ------- 0 0.0 2.0 22 22
+ 0.705 0 1 cbr 512 ------- 0 0.0 2.0 41 41
- 0.705 0 1 cbr 512 ------- 0 0.0 2.0 41 41
r 0.707936 1 2 cbr 512 ------- 0 0.0 2.0 19 19
r 0.709096 0 1 cbr 512 ------- 0 0.0 2.0 37 37
+ 0.709096 1 2 cbr 512 ------- 0 0.0 2.0 37 37
+ 0.71 0 1 cbr 512 ------- 0 0.0 2.0 42 42
- 0.71 0 1 cbr 512 ------- 0 0.0 2.0 42 42
- 0.712512 1 2 cbr 512 ------- 0 0.0 2.0 23 23
r 0.714096 0 1 cbr 512 ------- 0 0.0 2.0 38 38
+ 0.714096 1 2 cbr 512 ------- 0 0.0 2.0 38 38
+ 0.715 0 1 cbr 512 ------- 0 0.0 2.0 43 43
- 0.715 0 1 cbr 512 ------- 0 0.0 2.0 43 43
r 0.716128 1 2 cbr 512 ------- 0 0.0 2.0 20 20
r 0.719096 0 1 cbr 512 ------- 0 0.0 2.0 39 39
+ 0.719096 1 2 cbr 512 ------- 0 0.0 2.0 39 39
d 0.719096 1 2 cbr 512 ------- 0 0.0 2.0 39 39
+ 0.72 0 1 cbr 512 ------- 0 0.0 2.0 44 44
- 0.72 0 1 cbr 512 ------- 0 0.0 2.0 44 44
- 0.720704 1 2 cbr 512 ------- 0 0.0 2.0 25 25
r 0.724096 0 1 cbr 512 ------- 0 0.0 2.0 40 40
+ 0.724096 1 2 cbr 512 ------- 0 0.0 2.0 40 40
r 0.72432 1 2 cbr 512 ------- 0 0.0 2.0 21 21
+ 0.725 0 1 cbr 512 ------- 0 0.0 2.0 45 45
- 0.725 0 1 cbr 512 ------- 0 0.0 2.0 45 45
- 0.728896 1 2 cbr 512 ------- 0 0.0 2.0 27 27
r 0.729096 0 1 cbr 512 ------- 0 0.0 2.0 41 41
+ 0.729096 1 2 cbr 512 ------- 0 0.0 2.0 41 41
+ 0.73 0 1 cbr 512 ------- 0 0.0 2.0 46 46
- 0.73 0 1 cbr 512 ------- 0 0.0 2.0 46 46
r 0.732512 1 2 cbr 512 ------- 0 0.0 2.0 22 22
r 0.734096 0 1 cbr 512 ------- 0 0.0 2.0 42 42
+ 0.734096 1 2 cbr 512 ------- 0 0.0 2.0 42 42
d 0.734096 1 2 cbr 512 ------- 0 0.0 2.0 42 42
+ 0.735 0 1 cbr 512 ------- 0 0.0 2.0 47 47
- 0.735 0 1 cbr 512 ------- 0 0.0 2.0 47 47
- 0.737088 1 2 cbr 512 ------- 0 0.0 2.0 28 28
r 0.739096 0 1 cbr 512 ------- 0 0.0 2.0 43 43
+ 0.739096 1 2 cbr 512 ------- 0 0.0 2.0 43 43
+ 0.74 0 1 cbr 512 ------- 0 0.0 2.0 48 48
- 0.74 0 1 cbr 512 ------- 0 0.0 2.0 48 48
r 0.740704 1 2 cbr 512 ------- 0 0.0 2.0 23 23
r 0.744096 0 1 cbr 512 ------- 0 0.0 2.0 44 44
+ 0.744096 1 2 cbr 512 ------- 0 0.0 2.0 44 44
d 0.744096 1 2 cbr 512 ------- 0 0.0 2.0 44 44
+ 0.745 0 1 cbr 512 ------- 0 0.0 2.0 49 49
- 0.745 0 1 cbr 512 ------- 0 0.0 2.0 49 49
- 0.74528 1 2 cbr 512 ------- 0 0.0 2.0 30 30
r 0.748896 1 2 cbr 512 ------- 0 0.0 2.0 25 25
r 0.749096 0 1 cbr 512 ------- 0 0.0 2.0 45 45
+ 0.749096 1 2 cbr 512 ------- 0 0.0 2.0 45 45
+ 0.75 0 1 cbr 512 ------- 0 0.0 2.0 50 50
- 0.75 0 1 cbr 512 ------- 0 0.0 2.0 50 50
- 0.753472 1 2 cbr 512 ------- 0 0.0 2.0 32 32
r 0.754096 0 1 cbr 512 ------- 0 0.0 2.0 46 46
+ 0.754096 1 2 cbr 512 ------- 0 0.0 2.0 46 46
+ 0.755 0 1 cbr 512 ------- 0 0.0 2.0 51 51
- 0.755 0 1 cbr 512 ------- 0 0.0 2.0 51 51
r 0.757088 1 2 cbr 512 ------- 0 0.0 2.0 27 27
r 0.759096 0 1 cbr 512 ------- 0 0.0 2.0 47 47
+ 0.759096 1 2 cbr 512 ------- 0 0.0 2.0 47 47
d 0.759096 1 2 cbr 512 ------- 0 0.0 2.0 47 47
+ 0.76 0 1 cbr 512 ------- 0 0.0 2.0 52 52
- 0.76 0 1 cbr 512 ------- 0 0.0 2.0 52 52
- 0.761664 1 2 cbr 512 ------- 0 0.0 2.0 33 33
r 0.764096 0 1 cbr 512 ------- 0 0.0 2.0 48 48
+ 0.764096 1 2 cbr 512 ------- 0 0.0 2.0 48 48
+ 0.765 0 1 cbr 512 ------- 0 0.0 2.0 53 53
- 0.765 0 1 cbr 512 ------- 0 0.0 2.0 53 53
r 0.76528 1 2 cbr 512 ------- 0 0.0 2.0 28 28
r 0.769096 0 1 cbr 512 ------- 0 0.0 2.0 49 49
+ 0.769096 1 2 cbr 512 ------- 0 0.0 2.0 49 49
d 0.769096 1 2 cbr 512 ------- 0 0.0 2.0 49 49
- 0.769856 1 2 cbr 512 ------- 0 0.0 2.0 35 35
+ 0.77 0 1 cbr 512 ------- 0 0.0 2.0 54 54
- 0.77 0 1 cbr 512 ------- 0 0.0 2.0 54 54
r 0.773472 1 2 cbr 512 ------- 0 0.0 2.0 30 30
r 0.774096 0 1 cbr 512 ------- 0 0.0 2.0 50 50
+ 0.774096 1 2 cbr 512 ------- 0 0.0 2.0 50 50
+ 0.775 0 1 cbr 512 ------- 0 0.0 2.0 55 55
- 0.775 0 1 cbr 512 ------- 0 0.0 2.0 55 55
- 0.778048 1 2 cbr 512 ------- 0 0.0 2.0 37 37
r 0.779096 0 1 cbr 512 ------- 0 0.0 2.0 51 51
+ 0.779096 1 2 cbr 512 ------- 0 0.0 2.0 51 51
+ 0.78 0 1 cbr 512 ------- 0 0.0 2.0 56 56
- 0.78 0 1 cbr 512 ------- 0 0.0 2.0 56 56
r 0.781664 1 2 cbr 512 ------- 0 0.0 2.0 32 32
r 0.784096 0 1 cbr 512 ------- 0 0.0 2.0 52 52
+ 0.784096 1 2 cbr 512 ------- 0 0.0 2.0 52 52
d 0.784096 1 2 cbr 512 ------- 0 0.0 2.0 52 52
+ 0.785 0 1 cbr 512 ------- 0 0.0 2.0 57 57
- 0.785 0 1 cbr 512 ------- 0 0.0 2.0 57 57
- 0.78624 1 2 cbr 512 ------- 0 0.0 2.0 38 38
r 0.789096 0 1 cbr 512 ------- 0 0.0 2.0 53 53
+ 0.789096 1 2 cbr 512 ------- 0 0.0 2.0 53 53
r 0.789856 1 2 cbr 512 ------- 0 0.0 2.0 33 33
+ 0.79 0 1 cbr 512 ------- 0 0.0 2.0 58 58
- 0.79 0 1 cbr 512 ------- 0 0.0 2.0 58 58
r 0.794096 0 1 cbr 512 ------- 0 0.0 2.0 54 54
+ 0.794096 1 2 cbr 512 ------- 0 0.0 2.0 54 54
d 0.794096 1 2 cbr 512 ------- 0 0.0 2.0 54 54
- 0.794432 1 2 cbr 512 ------- 0 0.0 2.0 40 40
+ 0.795 0 1 cbr 512 ------- 0 0.0 2.0 59 59
- 0.795 0 1 cbr 512 ------- 0 0.0 2.0 59 59
r 0.798048 1 2 cbr 512 ------- 0 0.0 2.0 35 35
r 0.799096 0 1 cbr 512 ------- 0 0.0 2.0 55 55
+ 0.799096 1 2 cbr 512 ------- 0 0.0 2.0 55 55
+ 0.8 0 1 cbr 512 ------- 0 0.0 2.0 60 60
- 0.8 0 1 cbr 512 ------- 0 0.0 2.0 60 60
- 0.802624 1 2 cbr 512 ------- 0 0.0 2.0 41 41
r 0.804096 0 1 cbr 512 ------- 0 0.0 2.0 56 56
+ 0.804096 1 2 cbr 512 ------- 0 0.0 2.0 56 56
+ 0.805 0 1 cbr 512 ------- 0 0.0 2.0 61 61
- 0.805 0 1 cbr 512 ------- 0 0.0 2.0 61 61
r 0.80624 1 2 cbr 512 ------- 0 0.0 2.0 37 37
r 0.809096 0 1 cbr 512 ------- 0 0.0 2.0 57 57
+ 0.809096 1 2 cbr 512 ------- 0 0.0 2.0 57 57
d 0.809096 1 2 cbr 512 ------- 0 0.0 2.0 57 57
+ 0.81 0 1 cbr 512 ------- 0 0.0 2.0 62 62
- 0.81 0 1 cbr 512 ------- 0 0.0 2.0 62 62
- 0.810816 1 2 cbr 512 ------- 0 0.0 2.0 43 43
r 0.814096 0 1 cbr 512 ------- 0 0.0 2.0 58 58
+ 0.814096 1 2 cbr 512 ------- 0 0.0 2.0 58 58
r 0.814432 1 2 cbr 512 ------- 0 0.0 2.0 38 38
+ 0.815 0 1 cbr 512 ------- 0 0.0 2.0 63 63
- 0.815 0 1 cbr 512 ------- 0 0.0 2.0 63 63
- 0.819008 1 2 cbr 512 ------- 0 0.0 2.0 45 45
r 0.819096 0 1 cbr 512 ------- 0 0.0 2.0 59 59
+ 0.819096 1 2 cbr 512 ------- 0 0.0 2.0 59 59
+ 0.82 0 1 cbr 512 ------- 0 0.0 2.0 64 64
- 0.82 0 1 cbr 512 ------- 0 0.0 2.0 64 64
r 0.822624 1 2 cbr 512 ------- 0 0.0 2.0 40 40
r 0.824096 0 1 cbr 512 ------- 0 0.0 2.0 60 60
+ 0.824096 1 2 cbr 512 ------- 0 0.0 2.0 60 60
d 0.824096 1 2 cbr 512 ------- 0 0.0 2.0 60 60
+ 0.825 0 1 cbr 512 ------- 0 0.0 2.0 65 65
- 0.825 0 1 cbr 512 ------- 0 0.0 2.0 65 65
- 0.8272 1 2 cbr 512 ------- 0 0.0 2.0 46 46
r 0.829096 0 1 cbr 512 ------- 0 0.0 2.0 61 61
+ 0.829096 1 2 cbr 512 ------- 0 0.0 2.0 61 61
+ 0.83 0 1 cbr 512 ------- 0 0.0 2.0 66 66
- 0.83 0 1 cbr 512 ------- 0 0.0 2.0 66 66
r 0.830816 1 2 cbr 512 ------- 0 0.0 2.0 41 41
r 0.834096 0 1 cbr 512 ------- 0 0.0 2.0 62 62
+ 0.834096 1 2 cbr 512 ------- 0 0.0 2.0 62 62
d 0.834096 1 2 cbr 512 ------- 0 0.0 2.0 62 62
+ 0.835 0 1 cbr 512 ------- 0 0.0 2.0 67 67
- 0.835 0 1 cbr 512 ------- 0 0.0 2.0 67 67
- 0.835392 1 2 cbr 512 ------- 0 0.0 2.0 48 48
r 0.839008 1 2 cbr 512 ------- 0 0.0 2.0 43 43
r 0.839096 0 1 cbr 512 ------- 0 0.0 2.0 63 63
+ 0.839096 1 2 cbr 512 ------- 0 0.0 2.0 63 63
+ 0.84 0 1 cbr 512 ------- 0 0.0 2.0 68 68
- 0.84 0 1 cbr 512 ------- 0 0.0 2.0 68 68
- 0.843584 1 2 cbr 512 ------- 0 0.0 2.0 50 50
r 0.844096 0 1 cbr 512 ------- 0 0.0 2.0 64 64
+ 0.844096 1 2 cbr 512 ------- 0 0.0 2.0 64 64
+ 0.845 0 1 cbr 512 ------- 0 0.0 2.0 69 69
- 0.845 0 1 cbr 512 ------- 0 0.0 2.0 69 69
r 0.8472 1 2 cbr 512 ------- 0 0.0 2.0 45 45
r 0.849096 0 1 cbr 512 ------- 0 0.0 2.0 65 65
+ 0.849096 1 2 cbr 512 ------- 0 0.0 2.0 65 65
d 0.849096 1 2 cbr 512 ------- 0 0.0 2.0 65 65
+ 0.85 0 1 cbr 512 ------- 0 0.0 2.0 70 70
- 0.85 0 1 cbr 512 ------- 0 0.0 2.0 70 70
- 0.851776 1 2 cbr 512 ------- 0 0.0 2.0 51 51
r 0.854096 0 1 cbr 512 ------- 0 0.0 2.0 66 66
+ 0.854096 1 2 cbr 512 ------- 0 0.0 2.0 66 66
+ 0.855 0 1 cbr 512 ------- 0 0.0 2.0 71 71
- 0.855 0 1 cbr 512 ------- 0 0.0 2.0 71 71
r 0.855392 1 2 cbr 512 ------- 0 0.0 2.0 46 46
r 0.859096 0 1 cbr 512 ------- 0 0.0 2.0 67 67
+ 0.859096 1 2 cbr 512 ------- 0 0.0 2.0 67 67
d 0.859096 1 2 cbr 512 ------- 0 0.0 2.0 67 67
- 0.859968 1 2 cbr 512 ------- 0 0.0 2.0 53 53
+ 0.86 0 1 cbr 512 ------- 0 0.0 2.0 72 72
- 0.86 0 1 cbr 512 ------- 0 0.0 2.0 72 72
r 0.863584 1 2 cbr 512 ------- 0 0.0 2.0 48 48
r 0.864096 0 1 cbr 512 ------- 0 0.0 2.0 68 68
+ 0.864096 1 2 cbr 512 ------- 0 0.0 2.0 68 68
+ 0.865 0 1 cbr 512 ------- 0 0.0 2.0 73 73
- 0.865 0 1 cbr 512 ------- 0 0.0 2.0 73 73
- 0.86816 1 2 cbr 512 ------- 0 0.0 2.0 55 55
r 0.869096 0 1 cbr 512 ------- 0 0.0 2.0 69 69
+ 0.869096 1 2 cbr 512 ------- 0 0.0 2.0 69 69
+ 0.87 0 1 cbr 512 ------- 0 0.0 2.0 74 74
- 0.87 0 1 cbr 512 ------- 0 0.0 2.0 74 74
r 0.871776 1 2 cbr 512 ------- 0 0.0 2.0 50 50
r 0.874096 0 1 cbr 512 ------- 0 0.0 2.0 70 70
+ 0.874096 1 2 cbr 512 ------- 0 0.0 2.0 70 70
d 0.874096 1 2 cbr 512 ------- 0 0.0 2.0 70 70
+ 0.875 0 1 cbr 512 ------- 0 0.0 2.0 75 75
- 0.875 0 1 cbr 512 ------- 0 0.0 2.0 75 75
- 0.876352 1 2 cbr 512 ------- 0 0.0 2.0 56 56
r 0.879096 0 1 cbr 512 ------- 0 0.0 2.0 71 71
+ 0.879096 1 2 cbr 512 ------- 0 0.0 2.0 71 71
r 0.879968 1 2 cbr 512 ------- 0 0.0 2.0 51 51
+ 0.88 0 1 cbr 512 ------- 0 0.0 2.0 76 76
- 0.88 0 1 cbr 512 ------- 0 0.0 2.0 76 76
r 0.884096 0 1 cbr 512 ------- 0 0.0 2.0 72 72
+ 0.884096 1 2 cbr 512 ------- 0 0.0 2.0 72 72
d 0.884096 1 2 cbr 512 ------- 0 0.0 2.0 72 72
- 0.884544 1 2 cbr 512 ------- 0 0.0 2.0 58 58
+ 0.885 0 1 cbr 512 ------- 0 0.0 2.0 77 77
- 0.885 0 1 cbr 512 ------- 0 0.0 2.0 77 77
r 0.88816 1 2 cbr 512 ------- 0 0.0 2.0 53 53
r 0.889096 0 1 cbr 512 ------- 0 0.0 2.0 73 73
+ 0.889096 1 2 cbr 512 ------- 0 0.0 2.0 73 73
+ 0.89 0 1 cbr 512 ------- 0 0.0 2.0 78 78
- 0.89 0 1 cbr 512 ------- 0 0.0 2.0 78 78
- 0.892736 1 2 cbr 512 ------- 0 0.0 2.0 59 59
r 0.894096 0 1 cbr 512 ------- 0 0.0 2.0 74 74
+ 0.894096 1 2 cbr 512 ------- 0 0.0 2.0 74 74
+ 0.895 0 1 cbr 512 ------- 0 0.0 2.0 79 79
- 0.895 0 1 cbr 512 ------- 0 0.0 2.0 79 79
r 0.896352 1 2 cbr 512 ------- 0 0.0 2.0 55 55
r 0.899096 0 1 cbr 512 ------- 0 0.0 2.0 75 75
+ 0.899096 1 2 cbr 512 ------- 0 0.0 2.0 75 75
d 0.899096 1 2 cbr 512 ------- 0 0.0 2.0 75 75
+ 0.9 0 1 cbr 512 ------- 0 0.0 2.0 80 80
- 0.9 0 1 cbr 512 ------- 0 0.0 2.0 80 80
- 0.900928 1 2 cbr 512 ------- 0 0.0 2.0 61 61
r 0.904096 0 1 cbr 512 ------- 0 0.0 2.0 76 76
+ 0.904096 1 2 cbr 512 ------- 0 0.0 2.0 76 76
r 0.904544 1 2 cbr 512 ------- 0 0.0 2.0 56 56
+ 0.905 0 1 cbr 512 ------- 0 0.0 2.0 81 81
- 0.905 0 1 cbr 512 ------- 0 0.0 2.0 81 81
r 0.909096 0 1 cbr 512 ------- 0 0.0 2.0 77 77
+ 0.909096 1 2 cbr 512 ------- 0 0.0 2.0 77 77
d 0.909096 1 2 cbr 512 ------- 0 0.0 2.0 77 77
- 0.90912 1 2 cbr 512 ------- 0 0.0 2.0 63 63
+ 0.91 0 1 cbr 512 ------- 0 0.0 2.0 82 82
- 0.91 0 1 cbr 512 ------- 0 0.0 2.0 82 82
r 0.912736 1 2 cbr 512 ------- 0 0.0 2.0 58 58
r 0.914096 0 1 cbr 512 ------- 0 0.0 2.0 78 78
+ 0.914096 1 2 cbr 512 ------- 0 0.0 2.0 78 78
+ 0.915 0 1 cbr 512 ------- 0 0.0 2.0 83 83
- 0.915 0 1 cbr 512 ------- 0 0.0 2.0 83 83
- 0.917312 1 2 cbr 512 ------- 0 0.0 2.0 64 64
r 0.919096 0 1 cbr 512 ------- 0 0.0 2.0 79 79
+ 0.919096 1 2 cbr 512 ------- 0 0.0 2.0 79 79
+ 0.92 0 1 cbr 512 ------- 0 0.0 2.0 84 84
- 0.92 0 1 cbr 512 ------- 0 0.0 2.0 84 84
r 0.920928 1 2 cbr 512 ------- 0 0.0 2.0 59 59
r 0.924096 0 1 cbr 512 ------- 0 0.0 2.0 80 80
+ 0.924096 1 2 cbr 512 ------- 0 0.0 2.0 80 80
d 0.924096 1 2 cbr 512 ------- 0 0.0 2.0 80 80
+ 0.925 0 1 cbr 512 ------- 0 0.0 2.0 85 85
- 0.925 0 1 cbr 512 ------- 0 0.0 2.0 85 85
- 0.925504 1 2 cbr 512 ------- 0 0.0 2.0 66 66
r 0.929096 0 1 cbr 512 ------- 0 0.0 2.0 81 81
+ 0.929096 1 2 cbr 512 ------- 0 0.0 2.0 81 81
r 0.92912 1 2 cbr 512 ------- 0 0.0 2.0 61 61
+ 0.93 0 1 cbr 512 ------- 0 0.0 2.0 86 86
- 0.93 0 1 cbr 512 ------- 0 0.0 2.0 86 86
- 0.933696 1 2 cbr 512 ------- 0 0.0 2.0 68 68
r 0.934096 0 1 cbr 512 ------- 0 0.0 2.0 82 82
+ 0.934096 1 2 cbr 512 ------- 0 0.0 2.0 82 82
+ 0.935 0 1 cbr 512 ------- 0 0.0 2.0 87 87
- 0.935 0 1 cbr 512 ------- 0 0.0 2.0 87 87
r 0.937312 1 2 cbr 512 ------- 0 0.0 2.0 63 63
r 0.939096 0 1 cbr 512 ------- 0 0.0 2.0 83 83
+ 0.939096 1 2 cbr 512 ------- 0 0.0 2.0 83 83
d 0.939096 1 2 cbr 512 ------- 0 0.0 2.0 83 83
+ 0.94 0 1 cbr 512 ------- 0 0.0 2.0 88 88
- 0.94 0 1 cbr 512 ------- 0 0.0 2.0 88 88
- 0.941888 1 2 cbr 512 ------- 0 0.0 2.0 69 69
r 0.944096 0 1 cbr 512 ------- 0 0.0 2.0 84 84
+ 0.944096 1 2 cbr 512 ------- 0 0.0 2.0 84 84
+ 0.945 0 1 cbr 512 ------- 0 0.0 2.0 89 89
- 0.945 0 1 cbr 512 ------- 0 0.0 2.0 89 89
r 0.945504 1 2 cbr 512 ------- 0 0.0 2.0 64 64
r 0.949096 0 1 cbr 512 ------- 0 0.0 2.0 85 85
+ 0.949096 1 2 cbr 512 ------- 0 0.0 2.0 85 85
d 0.949096 1 2 cbr 512 ------- 0 0.0 2.0 85 85
+ 0.95 0 1 cbr 512 ------- 0 0.0 2.0 90 90
- 0.95 0 1 cbr 512 ------- 0 0.0 2.0 90 90
- 0.95008 1 2 cbr 512 ------- 0 0.0 2.0 71 71
r 0.953696 1 2 cbr 512 ------- 0 0.0 2.0 66 66
r 0.954096 0 1 cbr 512 ------- 0 0.0 2.0 86 86
+ 0.954096 1 2 cbr 512 ------- 0 0.0 2.0 86 86
+ 0.955 0 1 cbr 512 ------- 0 0.0 2.0 91 91
- 0.955 0 1 cbr 512 ------- 0 0.0 2.0 91 91
- 0.958272 1 2 cbr 512 ------- 0 0.0 2.0 73 73
r 0.959096 0 1 cbr 512 ------- 0 0.0 2.0 87 87
+ 0.959096 1 2 cbr 512 ------- 0 0.0 2.0 87 87
+ 0.96 0 1 cbr 512 ------- 0 0.0 2.0 92 92
- 0.96 0 1 cbr 512 ------- 0 0.0 2.0 92 92
r 0.961888 1 2 cbr 512 ------- 0 0.0 2.0 68 68
r 0.964096 0 1 cbr 512 ------- 0 0.0 2.0 88 88
+ 0.964096 1 2 cbr 512 ------- 0 0.0 2.0 88 88
d 0.964096 1 2 cbr 512 ------- 0 0.0 2.0 88 88
+ 0.965 0 1 cbr 512 ------- 0 0.0 2.0 93 93
- 0.965 0 1 cbr 512 ------- 0 0.0 2.0 93 93
- 0.966464 1 2 cbr 512 ------- 0 0.0 2.0 74 74
r 0.969096 0 1 cbr 512 ------- 0 0.0 2.0 89 89
+ 0.969096 1 2 cbr 512 ------- 0 0.0 2.0 89 89
+ 0.97 0 1 cbr 512 ------- 0 0.0 2.0 94 94
- 0.97 0 1 cbr 512 ------- 0 0.0 2.0 94 94
r 0.97008 1 2 cbr 512 ------- 0 0.0 2.0 69 69
r 0.974096 0 1 cbr 512 ------- 0 0.0 2.0 90 90
+ 0.974096 1 2 cbr 512 ------- 0 0.0 2.0 90 90
d 0.974096 1 2 cbr 512 ------- 0 0.0 2.0 90 90
- 0.974656 1 2 cbr 512 ------- 0 0.0 2.0 76 76
+ 0.975 0 1 cbr 512 ------- 0 0.0 2.0 95 95
- 0.975 0 1 cbr 512 ------- 0 0.0 2.0 95 95
r 0.978272 1 2 cbr 512 ------- 0 0.0 2.0 71 71
r 0.979096 0 1 cbr 512 ------- 0 0.0 2.0 91 91
+ 0.979096 1 2 cbr 512 ------- 0 0.0 2.0 91 91
+ 0.98 0 1 cbr 512 ------- 0 0.0 2.0 96 96
- 0.98 0 1 cbr 512 ------- 0 0.0 2.0 96 96
- 0.982848 1 2 cbr 512 ------- 0 0.0 2.0 78 78
r 0.984096 0 1 cbr 512 ------- 0 0.0 2.0 92 92
+ 0.984096 1 2 cbr 512 ------- 0 0.0 2.0 92 92
+ 0.985 0 1 cbr 512 ------- 0 0.0 2.0 97 97
- 0.985 0 1 cbr 512 ------- 0 0.0 2.0 97 97
r 0.986464 1 2 cbr 512 ------- 0 0.0 2.0 73 73
r 0.989096 0 1 cbr 512 ------- 0 0.0 2.0 93 93
+ 0.989096 1 2 cbr 512 ------- 0 0.0 2.0 93 93
d 0.989096 1 2 cbr 512 ------- 0 0.0 2.0 93 93
+ 0.99 0 1 cbr 512 ------- 0 0.0 2.0 98 98
- 0.99 0 1 cbr 512 ------- 0 0.0 2.0 98 98
- 0.99104 1 2 cbr 512 ------- 0 0.0 2.0 79 79
r 0.994096 0 1 cbr 512 ------- 0 0.0 2.0 94 94
+ 0.994096 1 2 cbr 512 ------- 0 0.0 2.0 94 94
r 0.994656 1 2 cbr 512 ------- 0 0.0 2.0 74 74
+ 0.995 0 1 cbr 512 ------- 0 0.0 2.0 99 99
- 0.995 0 1 cbr 512 ------- 0 0.0 2.0 99 99
r 0.999096 0 1 cbr 512 ------- 0 0.0 2.0 95 95
+ 0.999096 1 2 cbr 512 ------- 0 0.0 2.0 95 95
d 0.999096 1 2 cbr 512 ------- 0 0.0 2.0 95 95
- 0.999232 1 2 cbr 512 ------- 0 0.0 2.0 81 81
+ 1 0 1 cbr 512 ------- 0 0.0 2.0 100 100
- 1 0 1 cbr 512 ------- 0 0.0 2.0 100 100
r 1.002848 1 2 cbr 512 ------- 0 0.0 2.0 76 76
r 1.004096 0 1 cbr 512 ------- 0 0.0 2.0 96 96
+ 1.004096 1 2 cbr 512 ------- 0 0.0 2.0 96 96
+ 1.005 0 1 cbr 512 ------- 0 0.0 2.0 101 101
- 1.005 0 1 cbr 512 ------- 0 0.0 2.0 101 101
- 1.007424 1 2 cbr 512 ------- 0 0.0 2.0 82 82
r 1.009096 0 1 cbr 512 ------- 0 0.0 2.0 97 97
+ 1.009096 1 2 cbr 512 ------- 0 0.0 2.0 97 97
+ 1.01 0 1 cbr 512 ------- 0 0.0 2.0 102 102
- 1.01 0 1 cbr 512 ------- 0 0.0 2.0 102 102
r 1.01104 1 2 cbr 512 ------- 0 0.0 2.0 78 78
r 1.014096 0 1 cbr 512 ------- 0 0.0 2.0 98 98
+ 1.014096 1 2 cbr 512 ------- 0 0.0 2.0 98 98
d 1.014096 1 2 cbr 512 ------- 0 0.0 2.0 98 98
+ 1.015 0 1 cbr 512 ------- 0 0.0 2.0 103 103
- 1.015 0 1 cbr 512 ------- 0 0.0 2.0 103 103
- 1.015616 1 2 cbr 512 ------- 0 0.0 2.0 84 84
r 1.019096 0 1 cbr 512 ------- 0 0.0 2.0 99 99
+ 1.019096 1 2 cbr 512 ------- 0 0.0 2.0 99 99
r 1.019232 1 2 cbr 512 ------- 0 0.0 2.0 79 79
+ 1.02 0 1 cbr 512 ------- 0 0.0 2.0 104 104
- 1.02 0 1 cbr 512 ------- 0 0.0 2.0 104 104
- 1.023808 1 2 cbr 512 ------- 0 0.0 2.0 86 86
r 1.024096 0 1 cbr 512 ------- 0 0.0 2.0 100 100
+ 1.024096 1 2 cbr 512 ------- 0 0.0 2.0 100 100
+ 1.025 0 1 cbr 512 ------- 0 0.0 2.0 105 105
- 1.025 0 1 cbr 512 ------- 0 0.0 2.0 105 105
r 1.027424 1 2 cbr 512 ------- 0 0.0 2.0 81 81
r 1.029096 0 1 cbr 512 ------- 0 0.0 2.0 101 101
+ 1.029096 1 2 cbr 512 ------- 0 0.0 2.0 101 101
d 1.029096 1 2 cbr 512 ------- 0 0.0 2.0 101 101
+ 1.03 0 1 cbr 512 ------- 0 0.0 2.0 106 106
- 1.03 0 1 cbr 512 ------- 0 0.0 2.0 106 106
- 1.032 1 2 cbr 512 ------- 0 0.0 2.0 87 87
r 1.034096 0 1 cbr 512 ------- 0 0.0 2.0 102 102
+ 1.034096 1 2 cbr 512 ------- 0 0.0 2.0 102 102
+ 1.035 0 1 cbr 512 ------- 0 0.0 2.0 107 107
- 1.035 0 1 cbr 512 ------- 0 0.0 2.0 107 107
r 1.035616 1 2 cbr 512 ------- 0 0.0 2.0 82 82
r 1.039096 0 1 cbr 512 ------- 0 0.0 2.0 103 103
+ 1.039096 1 2 cbr 512 ------- 0 0.0 2.0 103 103
d 1.039096 1 2 cbr 512 ------- 0 0.0 2.0 103 103
+ 1.04 0 1 cbr 512 ------- 0 0.0 2.0 108 108
- 1.04 0 1 cbr 512 ------- 0 0.0 2.0 108 108
- 1.040192 1 2 cbr 512 ------- 0 0.0 2.0 89 89
r 1.043808 1 2 cbr 512 ------- 0 0.0 2.0 84 84
r 1.044096 0 1 cbr 512 ------- 0 0.0 2.0 104 104
+ 1.044096 1 2 cbr 512 ------- 0 0.0 2.0 104 104
+ 1.045 0 1 cbr 512 ------- 0 0.0 2.0 109 109
- 1.045 0 1 cbr 512 ------- 0 0.0 2.0 109 109
- 1.048384 1 2 cbr 512 ------- 0 0.0 2.0 91 91
r 1.049096 0 1 cbr 512 ------- 0 0.0 2.0 105 105
+ 1.049096 1 2 cbr 512 ------- 0 0.0 2.0 105 105
+ 1.05 0 1 cbr 512 ------- 0 0.0 2.0 110 110
- 1.05 0 1 cbr 512 ------- 0 0.0 2.0 110 110
r 1.052 1 2 cbr 512 ------- 0 0.0 2.0 86 86
r 1.054096 0 1 cbr 512 ------- 0 0.0 2.0 106 106
+ 1.054096 1 2 cbr 512 ------- 0 0.0 2.0 106 106
d 1.054096 1 2 cbr 512 ------- 0 0.0 2.0 106 106
+ 1.055 0 1 cbr 512 ------- 0 0.0 2.0 111 111
- 1.055 0 1 cbr 512 ------- 0 0.0 2.0 111 111
- 1.056576 1 2 cbr 512 ------- 0 0.0 2.0 92 92
r 1.059096 0 1 cbr 512 ------- 0 0.0 2.0 107 107
+ 1.059096 1 2 cbr 512 ------- 0 0.0 2.0 107 107
+ 1.06 0 1 cbr 512 ------- 0 0.0 2.0 112 112
- 1.06 0 1 cbr 512 ------- 0 0.0 2.0 112 112
r 1.060192 1 2 cbr 512 ------- 0 0.0 2.0 87 87
r 1.064096 0 1 cbr 512 ------- 0 0.0 2.0 108 108
+ 1.064096 1 2 cbr 512 ------- 0 0.0 2.0 108 108
d 1.064096 1 2 cbr 512 ------- 0 0.0 2.0 108 108
- 1.064768 1 2 cbr 512 ------- 0 0.0 2.0 94 94
+ 1.065 0 1 cbr 512 ------- 0 0.0 2.0 113 113
- 1.065 0 1 cbr 512 ------- 0 0.0 2.0 113 113
r 1.068384 1 2 cbr 512 ------- 0 0.0 2.0 89 89
r 1.069096 0 1 cbr 512 ------- 0 0.0 2.0 109 109
+ 1.069096 1 2 cbr 512 ------- 0 0.0 2.0 109 109
+ 1.07 0 1 cbr 512 ------- 0 0.0 2.0 114 114
- 1.07 0 1 cbr 512 ------- 0 0.0 2.0 114 114
- 1.07296 1 2 cbr 512 ------- 0 0.0 2.0 96 96
r 1.074096 0 1 cbr 512 ------- 0 0.0 2.0 110 110
+ 1.074096 1 2 cbr 512 ------- 0 0.0 2.0 110 110
+ 1.075 0 1 cbr 512 ------- 0 0.0 2.0 115 115
- 1.075 0 1 cbr 512 ------- 0 0.0 2.0 115 115
r 1.076576 1 2 cbr 512 ------- 0 0.0 2.0 91 91
r 1.079096 0 1 cbr 512 ------- 0 0.0 2.0 111 111
+ 1.079096 1 2 cbr 512 ------- 0 0.0 2.0 111 111
d 1.079096 1 2 cbr 512 ------- 0 0.0 2.0 111 111
+ 1.08 0 1 cbr 512 ------- 0 0.0 2.0 116 116
- 1.08 0 1 cbr 512 ------- 0 0.0 2.0 116 116
- 1.081152 1 2 cbr 512 ------- 0 0.0 2.0 97 97
r 1.084096 0 1 cbr 512 ------- 0 0.0 2.0 112 112
+ 1.084096 1 2 cbr 512 ------- 0 0.0 2.0 112 112
r 1.084768 1 2 cbr 512 ------- 0 0.0 2.0 92 92
+ 1.085 0 1 cbr 512 ------- 0 0.0 2.0 117 117
- 1.085 0 1 cbr 512 ------- 0 0.0 2.0 117 117
r 1.089096 0 1 cbr 512 ------- 0 0.0 2.0 113 113
+ 1.089096 1 2 cbr 512 ------- 0 0.0 2.0 113 113
d 1.089096 1 2 cbr 512 ------- 0 0.0 2.0 113 113
- 1.089344 1 2 cbr 512 ------- 0 0.0 2.0 99 99
+ 1.09 0 1 cbr 512 ------- 0 0.0 2.0 118 118
- 1.09 0 1 cbr 512 ------- 0 0.0 2.0 118 118
r 1.09296 1 2 cbr 512 ------- 0 0.0 2.0 94 94
r 1.094096 0 1 cbr 512 ------- 0 0.0 2.0 114 114
+ 1.094096 1 2 cbr 512 ------- 0 0.0 2.0 114 114
+ 1.095 0 1 cbr 512 ------- 0 0.0 2.0 119 119
- 1.095 0 1 cbr 512 ------- 0 0.0 2.0 119 119
- 1.097536 1 2 cbr 512 ------- 0 0.0 2.0 100 100
r 1.099096 0 1 cbr 512 ------- 0 0.0 2.0 115 115
+ 1.099096 1 2 cbr 512 ------- 0 0.0 2.0 115 115
+ 1.1 0 1 cbr 512 ------- 0 0.0 2.0 120 120
- 1.1 0 1 cbr 512 ------- 0 0.0 2.0 120 120
r 1.101152 1 2 cbr 512 ------- 0 0.0 2.0 96 96
r 1.104096 0 1 cbr 512 ------- 0 0.0 2.0 116 116
+ 1.104096 1 2 cbr 512 ------- 0 0.0 2.0 116 116
d 1.104096 1 2 cbr 512 ------- 0 0.0 2.0 116 116
+ 1.105 0 1 cbr 512 ------- 0 0.0 2.0 121 121
- 1.105 0 1 cbr 512 ------- 0 0.0 2.0 121 121
- 1.105728 1 2 cbr 512 ------- 0 0.0 2.0 102 102
r 1.109096 0 1 cbr 512 ------- 0 0.0 2.0 117 117